    6    6    1    1
  0.1326264E+03  0.4170278E-09  0.5937801E-09  0.3213694E-08  0.5000000E-15
  1.000000000000000E-004
  CAR 
 2D Structure                            
     32    100     24
 
  0.0000000E+00  0.0000000E+00  0.0000000E+00  0.1000000E-01
    1      -18.758597   1.000000
    2      -18.718573   1.000000
    3      -15.702851   1.000000
    4      -14.958692   1.000000
    5      -10.413060   1.000000
    6       -9.226280   1.000000
    7       -7.761000   1.000000
    8       -7.412187   1.000000
    9       -6.703857   1.000000
   10       -6.608810   1.000000
   11       -6.493149   1.000000
   12       -6.323411   1.000000
   13       -5.456616   1.000001
   14       -5.389796   1.000011
   15       -5.158799   1.003913
   16       -4.842744   0.930467
   17       -2.498877  -0.000000
   18       -2.329727  -0.000000
   19       -0.795217  -0.000000
   20       -0.221294  -0.000000
   21       -0.007839  -0.000000
   22        0.297552  -0.000000
   23        1.396923   0.000000
   24        1.583195   0.000000
 
  0.2631579E-01  0.0000000E+00  0.0000000E+00  0.1000000E-01
    1      -18.757979   1.000000
    2      -18.718118   1.000000
    3      -15.699414   1.000000
    4      -14.956435   1.000000
    5      -10.412991   1.000000
    6       -9.228247   1.000000
    7       -7.757995   1.000000
    8       -7.410580   1.000000
    9       -6.720067   1.000000
   10       -6.608183   1.000000
   11       -6.494566   1.000000
   12       -6.327279   1.000000
   13       -5.460563   1.000001
   14       -5.403000   1.000007
   15       -5.173845   1.002929
   16       -4.872413   0.982612
   17       -2.462628  -0.000000
   18       -2.295280  -0.000000
   19       -0.787520  -0.000000
   20       -0.205764  -0.000000
   21       -0.028155  -0.000000
   22        0.280314  -0.000000
   23        1.399141   0.000000
   24        1.586584   0.000000
 
  0.5263158E-01  0.0000000E+00  0.0000000E+00  0.1000000E-01
    1      -18.756135   1.000000
    2      -18.716771   1.000000
    3      -15.689124   1.000000
    4      -14.949731   1.000000
    5      -10.412888   1.000000
    6       -9.234324   1.000000
    7       -7.749042   1.000000
    8       -7.405833   1.000000
    9       -6.765923   1.000000
   10       -6.608243   1.000000
   11       -6.500026   1.000000
   12       -6.337618   1.000000
   13       -5.493175   1.000000
   14       -5.417806   1.000004
   15       -5.225647   1.000973
   16       -4.945272   1.034111
   17       -2.365324  -0.000000
   18       -2.199199  -0.000000
   19       -0.762809  -0.000000
   20       -0.160264  -0.000000
   21       -0.081183  -0.000000
   22        0.231253  -0.000000
   23        1.407116   0.000000
   24        1.595896   0.000000
 
  0.7894737E-01  0.0000000E+00  0.0000000E+00  0.1000000E-01
    1      -18.753114   1.000000
    2      -18.714573   1.000000
    3      -15.672060   1.000000
    4      -14.938780   1.000000
    5      -10.413055   1.000000
    6       -9.245057   1.000000
    7       -7.734338   1.000000
    8       -7.398210   1.000000
    9       -6.836750   1.000000
   10       -6.611024   1.000000
   11       -6.513312   1.000000
   12       -6.350505   1.000000
   13       -5.566837   1.000000
   14       -5.412107   1.000005
   15       -5.328338   1.000070
   16       -5.025511   1.025941
   17       -2.234253  -0.000000
   18       -2.061405  -0.000000
   19       -0.716350  -0.000000
   20       -0.166726  -0.000000
   21       -0.068068  -0.000000
   22        0.158277  -0.000000
   23        1.422910   0.000000
   24        1.608300   0.000000
 
  0.1052632E+00  0.0000000E+00  0.0000000E+00  0.1000000E-01
    1      -18.748991   1.000000
    2      -18.711583   1.000000
    3      -15.648355   1.000000
    4      -14.923915   1.000000
    5      -10.413972   1.000000
    6       -9.261325   1.000000
    7       -7.714216   1.000000
    8       -7.388308   1.000000
    9       -6.927428   1.000000
   10       -6.617000   1.000000
   11       -6.539962   1.000000
   12       -6.360300   1.000000
   13       -5.658629   1.000000
   14       -5.478044   1.000001
   15       -5.398167   1.000008
   16       -5.094149   1.011519
   17       -2.100163  -0.000000
   18       -1.910305  -0.000000
   19       -0.642575  -0.000000
   20       -0.243327  -0.000000
   21        0.048799  -0.000000
   22        0.075826  -0.000000
   23        1.447694   0.000000
   24        1.620064   0.000000
 
  0.1315789E+00  0.0000000E+00  0.0000000E+00  0.1000000E-01
    1      -18.743871   1.000000
    2      -18.707887   1.000000
    3      -15.618206   1.000000
    4      -14.905613   1.000000
    5      -10.416255   1.000000
    6       -9.284319   1.000000
    7       -7.689174   1.000000
    8       -7.377589   1.000000
    9       -7.030856   1.000000
   10       -6.626238   1.000000
   11       -6.583655   1.000000
   12       -6.363511   1.000000
   13       -5.755215   1.000000
   14       -5.649507   1.000000
   15       -5.381187   1.000014
   16       -5.157484   1.004011
   17       -1.988908  -0.000000
   18       -1.776569  -0.000000
   19       -0.548231  -0.000000
   20       -0.310009  -0.000000
   21        0.013660  -0.000000
   22        0.203419  -0.000000
   23        1.481202   0.000000
   24        1.629561   0.000000
 
  0.1578947E+00  0.0000000E+00  0.0000000E+00  0.1000000E-01
    1      -18.737888   1.000000
    2      -18.703592   1.000000
    3      -15.581872   1.000000
    4      -14.884500   1.000000
    5      -10.420581   1.000000
    6       -9.315451   1.000000
    7       -7.659895   1.000000
    8       -7.370457   1.000000
    9       -7.135940   1.000000
   10       -6.643789   1.000000
   11       -6.638820   1.000000
   12       -6.361695   1.000000
   13       -5.849640   1.000000
   14       -5.819301   1.000000
   15       -5.363461   1.000025
   16       -5.223694   1.001018
   17       -1.916407  -0.000000
   18       -1.682918  -0.000000
   19       -0.486270  -0.000000
   20       -0.355967  -0.000000
   21        0.040408  -0.000000
   22        0.385601  -0.000000
   23        1.520772   0.000000
   24        1.637385   0.000000
 
  0.1842105E+00  0.0000000E+00  0.0000000E+00  0.1000000E-01
    1      -18.731186   1.000000
    2      -18.698821   1.000000
    3      -15.539691   1.000000
    4      -14.861356   1.000000
    5      -10.427573   1.000000
    6       -9.356212   1.000000
    7       -7.627290   1.000000
    8       -7.382935   1.000000
    9       -7.219643   1.000000
   10       -6.717177   1.000000
   11       -6.654887   1.000000
   12       -6.360929   1.000000
   13       -5.969490   1.000000
   14       -5.938386   1.000000
   15       -5.346702   1.000041
   16       -5.296633   1.000167
   17       -1.886043  -0.000000
   18       -1.636067  -0.000000
   19       -0.514476  -0.000000
   20       -0.380280  -0.000000
   21        0.212379  -0.000000
   22        0.574192  -0.000000
   23        1.565348   0.000000
   24        1.653442   0.000000
 
  0.2105263E+00  0.0000000E+00  0.0000000E+00  0.1000000E-01
    1      -18.723937   1.000000
    2      -18.693715   1.000000
    3      -15.492094   1.000000
    4      -14.837124   1.000000
    5      -10.437652   1.000000
    6       -9.407949   1.000000
    7       -7.592567   1.000000
    8       -7.441714   1.000000
    9       -7.248789   1.000000
   10       -6.799587   1.000000
   11       -6.674397   1.000000
   12       -6.373385   1.000000
   13       -6.081790   1.000000
   14       -6.019974   1.000000
   15       -5.377607   1.000016
   16       -5.332449   1.000062
   17       -1.890630  -0.000000
   18       -1.630168  -0.000000
   19       -0.595513  -0.000000
   20       -0.390134  -0.000000
   21        0.473011  -0.000000
   22        0.734753   0.000000
   23        1.617046   0.000000
   24        1.705084   0.000000
 
  0.2368421E+00  0.0000000E+00  0.0000000E+00  0.1000000E-01
    1      -18.716327   1.000000
    2      -18.688427   1.000000
    3      -15.439592   1.000000
    4      -14.812894   1.000000
    5      -10.450850   1.000000
    6       -9.471562   1.000000
    7       -7.557315   1.000000
    8       -7.525108   1.000000
    9       -7.239754   1.000000
   10       -6.885569   1.000000
   11       -6.697055   1.000000
   12       -6.414605   1.000000
   13       -6.138559   1.000000
   14       -6.094024   1.000000
   15       -5.466465   1.000001
   16       -5.322215   1.000083
   17       -1.918170  -0.000000
   18       -1.655187  -0.000000
   19       -0.689469  -0.000000
   20       -0.397305  -0.000000
   21        0.745950   0.000000
   22        0.837184   0.000000
   23        1.690107   0.000000
   24        1.814779   0.000000
 
  0.2631579E+00  0.0000000E+00  0.0000000E+00  0.1000000E-01
    1      -18.708543   1.000000
    2      -18.683121   1.000000
    3      -15.382808   1.000000
    4      -14.789910   1.000000
    5      -10.466638   1.000000
    6       -9.547197   1.000000
    7       -7.603998   1.000000
    8       -7.523628   1.000000
    9       -7.217972   1.000000
   10       -6.968832   1.000000
   11       -6.722051   1.000000
   12       -6.478919   1.000000
   13       -6.160787   1.000000
   14       -6.146325   1.000000
   15       -5.561991   1.000000
   16       -5.317435   1.000095
   17       -1.957159  -0.000000
   18       -1.701226  -0.000000
   19       -0.781423  -0.000000
   20       -0.413929  -0.000000
   21        0.887195   0.000000
   22        0.963319   0.000000
   23        1.805614   0.000000
   24        1.956167   0.000000
 
  0.2894737E+00  0.0000000E+00  0.0000000E+00  0.1000000E-01
    1      -18.700780   1.000000
    2      -18.677955   1.000000
    3      -15.322488   1.000000
    4      -14.769525   1.000000
    5      -10.483796   1.000000
    6       -9.633997   1.000000
    7       -7.668388   1.000000
    8       -7.494257   1.000000
    9       -7.191636   1.000000
   10       -7.043354   1.000000
   11       -6.747833   1.000000
   12       -6.545161   1.000000
   13       -6.220886   1.000000
   14       -6.128947   1.000000
   15       -5.661710   1.000000
   16       -5.319466   1.000090
   17       -1.998955  -0.000000
   18       -1.759464  -0.000000
   19       -0.866149  -0.000000
   20       -0.448979  -0.000000
   21        0.916817   0.000000
   22        1.089307   0.000000
   23        1.927457   0.000000
   24        2.078163   0.000000
 
  0.3157895E+00  0.0000000E+00  0.0000000E+00  0.1000000E-01
    1      -18.693225   1.000000
    2      -18.673092   1.000000
    3      -15.259517   1.000000
    4      -14.753161   1.000000
    5      -10.500397   1.000000
    6       -9.730045   1.000000
    7       -7.715038   1.000000
    8       -7.472673   1.000000
    9       -7.164319   1.000000
   10       -7.104407   1.000000
   11       -6.771839   1.000000
   12       -6.601524   1.000000
   13       -6.275221   1.000000
   14       -6.102778   1.000000
   15       -5.760674   1.000000
   16       -5.329488   1.000067
   17       -2.037942  -0.000000
   18       -1.822402  -0.000000
   19       -0.941554  -0.000000
   20       -0.505828  -0.000000
   21        0.951762   0.000000
   22        1.150182   0.000000
   23        2.008658   0.000000
   24        2.157148   0.000000
 
  0.3421053E+00  0.0000000E+00  0.0000000E+00  0.1000000E-01
    1      -18.686057   1.000000
    2      -18.668698   1.000000
    3      -15.194912   1.000000
    4      -14.742229   1.000000
    5      -10.513927   1.000000
    6       -9.832502   1.000000
    7       -7.743381   1.000000
    8       -7.462675   1.000000
    9       -7.149024   1.000000
   10       -7.139263   1.000000
   11       -6.790212   1.000000
   12       -6.643608   1.000000
   13       -6.324781   1.000000
   14       -6.083697   1.000000
   15       -5.846175   1.000000
   16       -5.348383   1.000039
   17       -2.070880  -0.000000
   18       -1.884152  -0.000000
   19       -1.006242  -0.000000
   20       -0.581938  -0.000000
   21        1.002576   0.000000
   22        1.184233   0.000000
   23        2.064955   0.000000
   24        2.189190   0.000000
 
  0.3684211E+00  0.0000000E+00  0.0000000E+00  0.1000000E-01
    1      -18.679451   1.000000
    2      -18.664920   1.000000
    3      -15.129834   1.000000
    4      -14.738054   1.000000
    5      -10.521535   1.000000
    6       -9.937916   1.000000
    7       -7.754391   1.000000
    8       -7.466944   1.000000
    9       -7.176466   1.000000
   10       -7.120489   1.000000
   11       -6.797810   1.000000
   12       -6.669949   1.000000
   13       -6.370427   1.000000
   14       -6.103731   1.000000
   15       -5.886233   1.000000
   16       -5.376589   1.000017
   17       -2.096167  -0.000000
   18       -1.940646  -0.000000
   19       -1.058598  -0.000000
   20       -0.670890  -0.000000
   21        1.069163   0.000000
   22        1.211922   0.000000
   23        2.101858   0.000000
   24        2.124151   0.000000
 
  0.3947368E+00  0.0000000E+00  0.0000000E+00  0.1000000E-01
    1      -18.673556   1.000000
    2      -18.661896   1.000000
    3      -15.065568   1.000000
    4      -14.741759   1.000000
    5      -10.520352   1.000000
    6      -10.042578   1.000000
    7       -7.749984   1.000000
    8       -7.485156   1.000000
    9       -7.188936   1.000000
   10       -7.111832   1.000000
   11       -6.789610   1.000000
   12       -6.680905   1.000000
   13       -6.412674   1.000000
   14       -6.175515   1.000000
   15       -5.867155   1.000000
   16       -5.414010   1.000005
   17       -2.113278  -0.000000
   18       -1.989594  -0.000000
   19       -1.096616  -0.000000
   20       -0.765042  -0.000000
   21        1.145708   0.000000
   22        1.241102   0.000000
   23        2.080614   0.000000
   24        2.121741   0.000000
 
  0.4210526E+00  0.0000000E+00  0.0000000E+00  0.1000000E-01
    1      -18.668502   1.000000
    2      -18.659735   1.000000
    3      -15.003514   1.000000
    4      -14.754141   1.000000
    5      -10.507824   1.000000
    6      -10.142838   1.000000
    7       -7.732660   1.000000
    8       -7.514219   1.000000
    9       -7.190354   1.000000
   10       -7.114404   1.000000
   11       -6.763793   1.000000
   12       -6.678653   1.000000
   13       -6.451257   1.000000
   14       -6.266809   1.000000
   15       -5.819674   1.000000
   16       -5.459965   1.000001
   17       -2.122339  -0.000000
   18       -2.030210  -0.000000
   19       -1.118126  -0.000000
   20       -0.857255  -0.000000
   21        1.223049   0.000000
   22        1.273236   0.000000
   23        2.036356   0.000000
   24        2.120129   0.000000
 
  0.4473684E+00  0.0000000E+00  0.0000000E+00  0.1000000E-01
    1      -18.664395   1.000000
    2      -18.658538   1.000000
    3      -14.945140   1.000000
    4      -14.775603   1.000000
    5      -10.481994   1.000000
    6      -10.235374   1.000000
    7       -7.705201   1.000000
    8       -7.550370   1.000000
    9       -7.184192   1.000000
   10       -7.125582   1.000000
   11       -6.723800   1.000000
   12       -6.667213   1.000000
   13       -6.484211   1.000000
   14       -6.357946   1.000000
   15       -5.761393   1.000000
   16       -5.513240   1.000000
   17       -2.123832  -0.000000
   18       -2.062734  -0.000000
   19       -1.121202  -0.000000
   20       -0.941514  -0.000000
   21        1.289365   0.000000
   22        1.305896   0.000000
   23        2.005221   0.000000
   24        2.096688   0.000000
 
  0.4736842E+00  0.0000000E+00  0.0000000E+00  0.1000000E-01
    1      -18.661319   1.000000
    2      -18.658372   1.000000
    3      -14.891900   1.000000
    4      -14.806101   1.000000
    5      -10.441688   1.000000
    6      -10.317359   1.000000
    7       -7.670464   1.000000
    8       -7.590328   1.000000
    9       -7.172764   1.000000
   10       -7.141237   1.000000
   11       -6.679419   1.000000
   12       -6.653442   1.000000
   13       -6.504529   1.000000
   14       -6.438401   1.000000
   15       -5.698622   1.000000
   16       -5.572153   1.000000
   17       -2.118342  -0.000000
   18       -2.087876  -0.000000
   19       -1.104612  -0.000000
   20       -1.013024  -0.000000
   21        1.331948   0.000000
   22        1.333494   0.000000
   23        1.998694   0.000000
   24        2.058340   0.000000
 
  0.5000000E+00  0.0000000E+00  0.0000000E+00  0.1000000E-01
    1      -18.659477   1.000000
    2      -18.659123   1.000000
    3      -14.845470   1.000000
    4      -14.844854   1.000000
    5      -10.387043   1.000000
    6      -10.386176   1.000000
    7       -7.631924   1.000000
    8       -7.630599   1.000000
    9       -7.157990   1.000000
   10       -7.157641   1.000000
   11       -6.651875   1.000000
   12       -6.651475   1.000000
   13       -6.494229   1.000000
   14       -6.492206   1.000000
   15       -5.634857   1.000000
   16       -5.634533   1.000000
   17       -2.106656  -0.000000
   18       -2.105968  -0.000000
   19       -1.068743  -0.000000
   20       -1.067626  -0.000000
   21        1.344782   0.000000
   22        1.346097   0.000000
   23        2.018552   0.000000
   24        2.021095   0.000000
 
  0.5000000E+00  0.0000000E+00  0.0000000E+00  0.1000000E-01
    1      -18.659477   1.000000
    2      -18.659123   1.000000
    3      -14.845470   1.000000
    4      -14.844854   1.000000
    5      -10.387043   1.000000
    6      -10.386176   1.000000
    7       -7.631924   1.000000
    8       -7.630599   1.000000
    9       -7.157990   1.000000
   10       -7.157641   1.000000
   11       -6.651875   1.000000
   12       -6.651475   1.000000
   13       -6.494229   1.000000
   14       -6.492206   1.000000
   15       -5.634857   1.000000
   16       -5.634533   1.000000
   17       -2.106656  -0.000000
   18       -2.105968  -0.000000
   19       -1.068743  -0.000000
   20       -1.067626  -0.000000
   21        1.344782   0.000000
   22        1.346097   0.000000
   23        2.018548   0.000000
   24        2.021094   0.000000
 
  0.5000000E+00  0.2631579E-01  0.0000000E+00  0.1000000E-01
    1      -18.659441   1.000000
    2      -18.659087   1.000000
    3      -14.845247   1.000000
    4      -14.844631   1.000000
    5      -10.388277   1.000000
    6      -10.387415   1.000000
    7       -7.633970   1.000000
    8       -7.632664   1.000000
    9       -7.163108   1.000000
   10       -7.162749   1.000000
   11       -6.651397   1.000000
   12       -6.651055   1.000000
   13       -6.486171   1.000000
   14       -6.484244   1.000000
   15       -5.633845   1.000000
   16       -5.633510   1.000000
   17       -2.105936  -0.000000
   18       -2.105241  -0.000000
   19       -1.064813  -0.000000
   20       -1.063701  -0.000000
   21        1.339283   0.000000
   22        1.340579   0.000000
   23        2.025264   0.000000
   24        2.027786   0.000000
 
  0.5000000E+00  0.5263158E-01  0.0000000E+00  0.1000000E-01
    1      -18.659334   1.000000
    2      -18.658980   1.000000
    3      -14.844584   1.000000
    4      -14.843968   1.000000
    5      -10.391942   1.000000
    6      -10.391092   1.000000
    7       -7.639997   1.000000
    8       -7.638744   1.000000
    9       -7.177533   1.000000
   10       -7.177151   1.000000
   11       -6.650736   1.000000
   12       -6.650501   1.000000
   13       -6.462302   1.000000
   14       -6.460618   1.000000
   15       -5.630872   1.000000
   16       -5.630510   1.000000
   17       -2.103804  -0.000000
   18       -2.103087  -0.000000
   19       -1.053080  -0.000000
   20       -1.051987  -0.000000
   21        1.323718   0.000000
   22        1.324960   0.000000
   23        2.044595   0.000000
   24        2.047047   0.000000
 
  0.5000000E+00  0.7894737E-01  0.0000000E+00  0.1000000E-01
    1      -18.659162   1.000000
    2      -18.658808   1.000000
    3      -14.843497   1.000000
    4      -14.842882   1.000000
    5      -10.397932   1.000000
    6      -10.397103   1.000000
    7       -7.649682   1.000000
    8       -7.648513   1.000000
    9       -7.199003   1.000000
   10       -7.198600   1.000000
   11       -6.651240   1.000000
   12       -6.650975   1.000000
   13       -6.423976   1.000000
   14       -6.422589   1.000000
   15       -5.626124   1.000000
   16       -5.625722   1.000000
   17       -2.100347  -0.000000
   18       -2.099595  -0.000000
   19       -1.033709  -0.000000
   20       -1.032644  -0.000000
   21        1.300478   0.000000
   22        1.301644   0.000000
   23        2.074413   0.000000
   24        2.076783   0.000000
 
  0.5000000E+00  0.1052632E+00  0.0000000E+00  0.1000000E-01
    1      -18.658926   1.000000
    2      -18.658571   1.000000
    3      -14.842015   1.000000
    4      -14.841400   1.000000
    5      -10.406078   1.000000
    6      -10.405276   1.000000
    7       -7.662523   1.000000
    8       -7.661466   1.000000
    9       -7.224951   1.000000
   10       -7.224534   1.000000
   11       -6.653443   1.000000
   12       -6.653038   1.000000
   13       -6.373751   1.000000
   14       -6.372636   1.000000
   15       -5.619854   1.000000
   16       -5.619407   1.000000
   17       -2.095742  -0.000000
   18       -2.094942  -0.000000
   19       -1.006930  -0.000000
   20       -1.005904  -0.000000
   21        1.272581   0.000000
   22        1.273660   0.000000
   23        2.111985   0.000000
   24        2.114253   0.000000
 
  0.5000000E+00  0.1315789E+00  0.0000000E+00  0.1000000E-01
    1      -18.658637   1.000000
    2      -18.658281   1.000000
    3      -14.840175   1.000000
    4      -14.839560   1.000000
    5      -10.416146   1.000000
    6      -10.415377   1.000000
    7       -7.677902   1.000000
    8       -7.676979   1.000000
    9       -7.253188   1.000000
   10       -7.252770   1.000000
   11       -6.657144   1.000000
   12       -6.656608   1.000000
   13       -6.314687   1.000000
   14       -6.313791   1.000000
   15       -5.612330   1.000000
   16       -5.611838   1.000000
   17       -2.090280  -0.000000
   18       -2.089421  -0.000000
   19       -0.973002  -0.000000
   20       -0.972021  -0.000000
   21        1.242972   0.000000
   22        1.243957   0.000000
   23        2.154336   0.000000
   24        2.156490   0.000000
 
  0.5000000E+00  0.1578947E+00  0.0000000E+00  0.1000000E-01
    1      -18.658297   1.000000
    2      -18.657941   1.000000
    3      -14.838026   1.000000
    4      -14.837411   1.000000
    5      -10.427848   1.000000
    6      -10.427118   1.000000
    7       -7.695132   1.000000
    8       -7.694359   1.000000
    9       -7.282104   1.000000
   10       -7.281691   1.000000
   11       -6.661923   1.000000
   12       -6.661284   1.000000
   13       -6.249718   1.000000
   14       -6.248984   1.000000
   15       -5.603751   1.000000
   16       -5.603218   1.000000
   17       -2.084385  -0.000000
   18       -2.083457  -0.000000
   19       -0.932168  -0.000000
   20       -0.931236  -0.000000
   21        1.214172   0.000000
   22        1.215062   0.000000
   23        2.198149   0.000000
   24        2.200182   0.000000
 
  0.5000000E+00  0.1842105E+00  0.0000000E+00  0.1000000E-01
    1      -18.657918   1.000000
    2      -18.657562   1.000000
    3      -14.835624   1.000000
    4      -14.835010   1.000000
    5      -10.440855   1.000000
    6      -10.440167   1.000000
    7       -7.713537   1.000000
    8       -7.712920   1.000000
    9       -7.310589   1.000000
   10       -7.310191   1.000000
   11       -6.667367   1.000000
   12       -6.666656   1.000000
   13       -6.181494   1.000000
   14       -6.180872   1.000000
   15       -5.594183   1.000000
   16       -5.593615   1.000000
   17       -2.078599  -0.000000
   18       -2.077597  -0.000000
   19       -0.884644  -0.000000
   20       -0.883764  -0.000000
   21        1.188168   0.000000
   22        1.188963   0.000000
   23        2.239418   0.000000
   24        2.241318   0.000000
 
  0.5000000E+00  0.2105263E+00  0.0000000E+00  0.1000000E-01
    1      -18.657513   1.000000
    2      -18.657155   1.000000
    3      -14.833035   1.000000
    4      -14.832422   1.000000
    5      -10.454805   1.000000
    6      -10.454161   1.000000
    7       -7.732483   1.000000
    8       -7.732021   1.000000
    9       -7.337900   1.000000
   10       -7.337516   1.000000
   11       -6.673135   1.000000
   12       -6.672371   1.000000
   13       -6.112463   1.000000
   14       -6.111914   1.000000
   15       -5.583481   1.000000
   16       -5.582886   1.000000
   17       -2.073539  -0.000000
   18       -2.072458  -0.000000
   19       -0.830642  -0.000000
   20       -0.829813  -0.000000
   21        1.166411   0.000000
   22        1.167113   0.000000
   23        2.272809   0.000000
   24        2.274534   0.000000
 
  0.5000000E+00  0.2368421E+00  0.0000000E+00  0.1000000E-01
    1      -18.657089   1.000000
    2      -18.656730   1.000000
    3      -14.830328   1.000000
    4      -14.829715   1.000000
    5      -10.469308   1.000000
    6      -10.468709   1.000000
    7       -7.751401   1.000000
    8       -7.751085   1.000000
    9       -7.363520   1.000000
   10       -7.363152   1.000000
   11       -6.678956   1.000000
   12       -6.678155   1.000000
   13       -6.045000   1.000000
   14       -6.044491   1.000000
   15       -5.571240   1.000000
   16       -5.570627   1.000000
   17       -2.069811  -0.000000
   18       -2.068651  -0.000000
   19       -0.770432  -0.000000
   20       -0.769652  -0.000000
   21        1.149840   0.000000
   22        1.150457   0.000000
   23        2.291534   0.000000
   24        2.293019   0.000000
 
  0.5000000E+00  0.2631579E+00  0.0000000E+00  0.1000000E-01
    1      -18.656659   1.000000
    2      -18.656299   1.000000
    3      -14.827575   1.000000
    4      -14.826963   1.000000
    5      -10.483964   1.000000
    6      -10.483408   1.000000
    7       -7.769812   1.000000
    8       -7.769616   1.000000
    9       -7.387096   1.000000
   10       -7.386743   1.000000
   11       -6.684630   1.000000
   12       -6.683803   1.000000
   13       -5.981501   1.000000
   14       -5.980999   1.000000
   15       -5.556799   1.000000
   16       -5.556178   1.000000
   17       -2.067920  -0.000000
   18       -2.066683  -0.000000
   19       -0.704455  -0.000000
   20       -0.703718  -0.000000
   21        1.138907   0.000000
   22        1.139450   0.000000
   23        2.288543   0.000000
   24        2.289873   0.000000
 
  0.5000000E+00  0.2894737E+00  0.0000000E+00  0.1000000E-01
    1      -18.656234   1.000000
    2      -18.655874   1.000000
    3      -14.824850   1.000000
    4      -14.824238   1.000000
    5      -10.498371   1.000000
    6      -10.497858   1.000000
    7       -7.787316   1.000000
    8       -7.787187   1.000000
    9       -7.408379   1.000000
   10       -7.408042   1.000000
   11       -6.690005   1.000000
   12       -6.689159   1.000000
   13       -5.924330   1.000000
   14       -5.923808   1.000000
   15       -5.539353   1.000000
   16       -5.538729   1.000000
   17       -2.068169  -0.000000
   18       -2.066860  -0.000000
   19       -0.633450  -0.000000
   20       -0.632750  -0.000000
   21        1.133603   0.000000
   22        1.134090   0.000000
   23        2.259464   0.000000
   24        2.260577   0.000000
 
  0.5000000E+00  0.3157895E+00  0.0000000E+00  0.1000000E-01
    1      -18.655829   1.000000
    2      -18.655467   1.000000
    3      -14.822230   1.000000
    4      -14.821619   1.000000
    5      -10.512143   1.000000
    6      -10.511669   1.000000
    7       -7.803590   1.000000
    8       -7.803433   1.000000
    9       -7.427210   1.000000
   10       -7.426890   1.000000
   11       -6.694973   1.000000
   12       -6.694113   1.000000
   13       -5.875536   1.000000
   14       -5.874968   1.000000
   15       -5.518283   1.000000
   16       -5.517656   1.000000
   17       -2.070590  -0.000000
   18       -2.069216  -0.000000
   19       -0.558616  -0.000000
   20       -0.557943  -0.000000
   21        1.133492   0.000000
   22        1.133949   0.000000
   23        2.205896   0.000000
   24        2.206652   0.000000
 
  0.5000000E+00  0.3421053E+00  0.0000000E+00  0.1000000E-01
    1      -18.655451   1.000000
    2      -18.655088   1.000000
    3      -14.819787   1.000000
    4      -14.819176   1.000000
    5      -10.524909   1.000000
    6      -10.524471   1.000000
    7       -7.818312   1.000000
    8       -7.818086   1.000000
    9       -7.443493   1.000000
   10       -7.443192   1.000000
   11       -6.699437   1.000000
   12       -6.698567   1.000000
   13       -5.836361   1.000000
   14       -5.835729   1.000000
   15       -5.493675   1.000000
   16       -5.493039   1.000000
   17       -2.074919  -0.000000
   18       -2.073486  -0.000000
   19       -0.481763  -0.000000
   20       -0.481104  -0.000000
   21        1.137754   0.000000
   22        1.138216   0.000000
   23        2.134049   0.000000
   24        2.134726   0.000000
 
  0.5000000E+00  0.3684211E+00  0.0000000E+00  0.1000000E-01
    1      -18.655116   1.000000
    2      -18.654752   1.000000
    3      -14.817589   1.000000
    4      -14.816979   1.000000
    5      -10.536332   1.000000
    6      -10.535925   1.000000
    7       -7.831213   1.000000
    8       -7.830920   1.000000
    9       -7.457196   1.000000
   10       -7.456914   1.000000
   11       -6.703338   1.000000
   12       -6.702461   1.000000
   13       -5.806821   1.000000
   14       -5.806117   1.000000
   15       -5.466759   1.000001
   16       -5.466106   1.000001
   17       -2.080616  -0.000000
   18       -2.079132  -0.000000
   19       -0.405459  -0.000000
   20       -0.404797  -0.000000