   4   4   0   0
  0.5872723E+02  0.3917557E-09  0.3917557E-09  0.1530626E-08  0.5000000E-15
  1.000000000000000E-004
  CAR 
 2D Structure                            
      5.95069381    -17.44112813 3001      0.02482650      1.00000000
    -17.441  0.0000E+00  0.0000E+00
    -17.433  0.0000E+00  0.0000E+00
    -17.426  0.0000E+00  0.0000E+00
    -17.418  0.0000E+00  0.0000E+00
    -17.410  0.0000E+00  0.0000E+00
    -17.402  0.0000E+00  0.0000E+00
    -17.394  0.0000E+00  0.0000E+00
    -17.387  0.0000E+00  0.0000E+00
    -17.379  0.0000E+00  0.0000E+00
    -17.371  0.0000E+00  0.0000E+00
    -17.363  0.0000E+00  0.0000E+00
    -17.355  0.0000E+00  0.0000E+00
    -17.348  0.0000E+00  0.0000E+00
    -17.340  0.0000E+00  0.0000E+00
    -17.332  0.0000E+00  0.0000E+00
    -17.324  0.0000E+00  0.0000E+00
    -17.316  0.0000E+00  0.0000E+00
    -17.309  0.0000E+00  0.0000E+00
    -17.301  0.0000E+00  0.0000E+00
    -17.293  0.0000E+00  0.0000E+00
    -17.285  0.0000E+00  0.0000E+00
    -17.277  0.0000E+00  0.0000E+00
    -17.270  0.0000E+00  0.0000E+00
    -17.262  0.0000E+00  0.0000E+00
    -17.254  0.0000E+00  0.0000E+00
    -17.246  0.0000E+00  0.0000E+00
    -17.238  0.0000E+00  0.0000E+00
    -17.231  0.0000E+00  0.0000E+00
    -17.223  0.0000E+00  0.0000E+00
    -17.215  0.0000E+00  0.0000E+00
    -17.207  0.0000E+00  0.0000E+00
    -17.199  0.0000E+00  0.0000E+00
    -17.192  0.0000E+00  0.0000E+00
    -17.184  0.0000E+00  0.0000E+00
    -17.176  0.0000E+00  0.0000E+00
    -17.168  0.0000E+00  0.0000E+00
    -17.160  0.0000E+00  0.0000E+00
    -17.153  0.0000E+00  0.0000E+00
    -17.145  0.0000E+00  0.0000E+00
    -17.137  0.0000E+00  0.0000E+00
    -17.129  0.0000E+00  0.0000E+00
    -17.121  0.0000E+00  0.0000E+00
    -17.114  0.0000E+00  0.0000E+00
    -17.106  0.0000E+00  0.0000E+00
    -17.098  0.0000E+00  0.0000E+00
    -17.090  0.0000E+00  0.0000E+00
    -17.082  0.0000E+00  0.0000E+00
    -17.075  0.0000E+00  0.0000E+00
    -17.067  0.0000E+00  0.0000E+00
    -17.059  0.0000E+00  0.0000E+00
    -17.051  0.0000E+00  0.0000E+00
    -17.043  0.0000E+00  0.0000E+00
    -17.036  0.0000E+00  0.0000E+00
    -17.028  0.0000E+00  0.0000E+00
    -17.020  0.0000E+00  0.0000E+00
    -17.012  0.0000E+00  0.0000E+00
    -17.004  0.0000E+00  0.0000E+00
    -16.997  0.0000E+00  0.0000E+00
    -16.989  0.0000E+00  0.0000E+00
    -16.981  0.0000E+00  0.0000E+00
    -16.973  0.0000E+00  0.0000E+00
    -16.965  0.0000E+00  0.0000E+00
    -16.958  0.0000E+00  0.0000E+00
    -16.950  0.0000E+00  0.0000E+00
    -16.942  0.0000E+00  0.0000E+00
    -16.934  0.0000E+00  0.0000E+00
    -16.927  0.0000E+00  0.0000E+00
    -16.919  0.0000E+00  0.0000E+00
    -16.911  0.0000E+00  0.0000E+00
    -16.903  0.0000E+00  0.0000E+00
    -16.895  0.0000E+00  0.0000E+00
    -16.888  0.0000E+00  0.0000E+00
    -16.880  0.0000E+00  0.0000E+00
    -16.872  0.0000E+00  0.0000E+00
    -16.864  0.0000E+00  0.0000E+00
    -16.856  0.0000E+00  0.0000E+00
    -16.849  0.0000E+00  0.0000E+00
    -16.841  0.0000E+00  0.0000E+00
    -16.833  0.0000E+00  0.0000E+00
    -16.825  0.0000E+00  0.0000E+00
    -16.817  0.0000E+00  0.0000E+00
    -16.810  0.0000E+00  0.0000E+00
    -16.802  0.0000E+00  0.0000E+00
    -16.794  0.0000E+00  0.0000E+00
    -16.786  0.0000E+00  0.0000E+00
    -16.778  0.0000E+00  0.0000E+00
    -16.771  0.0000E+00  0.0000E+00
    -16.763  0.0000E+00  0.0000E+00
    -16.755  0.0000E+00  0.0000E+00
    -16.747  0.0000E+00  0.0000E+00
    -16.739  0.0000E+00  0.0000E+00
    -16.732  0.0000E+00  0.0000E+00
    -16.724  0.0000E+00  0.0000E+00
    -16.716  0.0000E+00  0.0000E+00
    -16.708  0.0000E+00  0.0000E+00
    -16.700  0.0000E+00  0.0000E+00
    -16.693  0.0000E+00  0.0000E+00
    -16.685  0.0000E+00  0.0000E+00
    -16.677  0.0000E+00  0.0000E+00
    -16.669  0.0000E+00  0.0000E+00
    -16.661  0.0000E+00  0.0000E+00
    -16.654  0.0000E+00  0.0000E+00
    -16.646  0.0000E+00  0.0000E+00
    -16.638  0.0000E+00  0.0000E+00
    -16.630  0.0000E+00  0.0000E+00
    -16.622  0.0000E+00  0.0000E+00
    -16.615  0.0000E+00  0.0000E+00
    -16.607  0.0000E+00  0.0000E+00
    -16.599  0.0000E+00  0.0000E+00
    -16.591  0.0000E+00  0.0000E+00
    -16.583  0.0000E+00  0.0000E+00
    -16.576  0.0000E+00  0.0000E+00
    -16.568  0.0000E+00  0.0000E+00
    -16.560  0.0000E+00  0.0000E+00
    -16.552  0.0000E+00  0.0000E+00
    -16.544  0.0000E+00  0.0000E+00
    -16.537  0.0000E+00  0.0000E+00
    -16.529  0.0000E+00  0.0000E+00
    -16.521  0.0000E+00  0.0000E+00
    -16.513  0.0000E+00  0.0000E+00
    -16.505  0.0000E+00  0.0000E+00
    -16.498  0.0000E+00  0.0000E+00
    -16.490  0.0000E+00  0.0000E+00
    -16.482  0.0000E+00  0.0000E+00
    -16.474  0.0000E+00  0.0000E+00
    -16.466  0.0000E+00  0.0000E+00
    -16.459  0.0000E+00  0.0000E+00
    -16.451  0.0000E+00  0.0000E+00
    -16.443  0.0000E+00  0.0000E+00
    -16.435  0.0000E+00  0.0000E+00
    -16.427  0.0000E+00  0.0000E+00
    -16.420  0.0000E+00  0.0000E+00
    -16.412  0.0000E+00  0.0000E+00
    -16.404  0.0000E+00  0.0000E+00
    -16.396  0.0000E+00  0.0000E+00
    -16.388  0.0000E+00  0.0000E+00
    -16.381  0.0000E+00  0.0000E+00
    -16.373  0.0000E+00  0.0000E+00
    -16.365  0.0000E+00  0.0000E+00
    -16.357  0.0000E+00  0.0000E+00
    -16.350  0.0000E+00  0.0000E+00
    -16.342  0.0000E+00  0.0000E+00
    -16.334  0.0000E+00  0.0000E+00
    -16.326  0.0000E+00  0.0000E+00
    -16.318  0.0000E+00  0.0000E+00
    -16.311  0.0000E+00  0.0000E+00
    -16.303  0.0000E+00  0.0000E+00
    -16.295  0.0000E+00  0.0000E+00
    -16.287  0.0000E+00  0.0000E+00
    -16.279  0.0000E+00  0.0000E+00
    -16.272  0.0000E+00  0.0000E+00
    -16.264  0.0000E+00  0.0000E+00
    -16.256  0.0000E+00  0.0000E+00
    -16.248  0.0000E+00  0.0000E+00
    -16.240  0.0000E+00  0.0000E+00
    -16.233  0.0000E+00  0.0000E+00
    -16.225  0.0000E+00  0.0000E+00
    -16.217  0.0000E+00  0.0000E+00
    -16.209  0.0000E+00  0.0000E+00
    -16.201  0.0000E+00  0.0000E+00
    -16.194  0.0000E+00  0.0000E+00
    -16.186  0.0000E+00  0.0000E+00
    -16.178  0.0000E+00  0.0000E+00
    -16.170  0.0000E+00  0.0000E+00
    -16.162  0.0000E+00  0.0000E+00
    -16.155  0.0000E+00  0.0000E+00
    -16.147  0.0000E+00  0.0000E+00
    -16.139  0.0000E+00  0.0000E+00
    -16.131  0.0000E+00  0.0000E+00
    -16.123  0.0000E+00  0.0000E+00
    -16.116  0.0000E+00  0.0000E+00
    -16.108  0.0000E+00  0.0000E+00
    -16.100  0.0000E+00  0.0000E+00
    -16.092  0.0000E+00  0.0000E+00
    -16.084  0.0000E+00  0.0000E+00
    -16.077  0.0000E+00  0.0000E+00
    -16.069  0.0000E+00  0.0000E+00
    -16.061  0.0000E+00  0.0000E+00
    -16.053  0.0000E+00  0.0000E+00
    -16.045  0.0000E+00  0.0000E+00
    -16.038  0.0000E+00  0.0000E+00
    -16.030  0.0000E+00  0.0000E+00
    -16.022  0.0000E+00  0.0000E+00
    -16.014  0.0000E+00  0.0000E+00
    -16.006  0.0000E+00  0.0000E+00
    -15.999  0.0000E+00  0.0000E+00
    -15.991  0.0000E+00  0.0000E+00
    -15.983  0.0000E+00  0.0000E+00
    -15.975  0.0000E+00  0.0000E+00
    -15.967  0.0000E+00  0.0000E+00
    -15.960  0.0000E+00  0.0000E+00
    -15.952  0.0000E+00  0.0000E+00
    -15.944  0.0000E+00  0.0000E+00
    -15.936  0.0000E+00  0.0000E+00
    -15.928  0.0000E+00  0.0000E+00
    -15.921  0.0000E+00  0.0000E+00
    -15.913  0.0000E+00  0.0000E+00
    -15.905  0.0000E+00  0.0000E+00
    -15.897  0.0000E+00  0.0000E+00
    -15.889  0.0000E+00  0.0000E+00
    -15.882  0.0000E+00  0.0000E+00
    -15.874  0.0000E+00  0.0000E+00
    -15.866  0.0000E+00  0.0000E+00
    -15.858  0.0000E+00  0.0000E+00
    -15.850  0.0000E+00  0.0000E+00
    -15.843  0.0000E+00  0.0000E+00
    -15.835  0.0000E+00  0.0000E+00
    -15.827  0.0000E+00  0.0000E+00
    -15.819  0.0000E+00  0.0000E+00
    -15.811  0.0000E+00  0.0000E+00
    -15.804  0.0000E+00  0.0000E+00
    -15.796  0.0000E+00  0.0000E+00
    -15.788  0.0000E+00  0.0000E+00
    -15.780  0.0000E+00  0.0000E+00
    -15.773  0.0000E+00  0.0000E+00
    -15.765  0.0000E+00  0.0000E+00
    -15.757  0.0000E+00  0.0000E+00
    -15.749  0.0000E+00  0.0000E+00
    -15.741  0.0000E+00  0.0000E+00
    -15.734  0.0000E+00  0.0000E+00
    -15.726  0.0000E+00  0.0000E+00
    -15.718  0.0000E+00  0.0000E+00
    -15.710  0.0000E+00  0.0000E+00
    -15.702  0.0000E+00  0.0000E+00
    -15.695  0.0000E+00  0.0000E+00
    -15.687  0.0000E+00  0.0000E+00
    -15.679  0.0000E+00  0.0000E+00
    -15.671  0.0000E+00  0.0000E+00
    -15.663  0.0000E+00  0.0000E+00
    -15.656  0.0000E+00  0.0000E+00
    -15.648  0.0000E+00  0.0000E+00
    -15.640  0.0000E+00  0.0000E+00
    -15.632  0.0000E+00  0.0000E+00
    -15.624  0.0000E+00  0.0000E+00
    -15.617  0.0000E+00  0.0000E+00
    -15.609  0.0000E+00  0.0000E+00
    -15.601  0.0000E+00  0.0000E+00
    -15.593  0.0000E+00  0.0000E+00
    -15.585  0.0000E+00  0.0000E+00
    -15.578  0.0000E+00  0.0000E+00
    -15.570  0.0000E+00  0.0000E+00
    -15.562  0.0000E+00  0.0000E+00
    -15.554  0.0000E+00  0.0000E+00
    -15.546  0.0000E+00  0.0000E+00
    -15.539  0.0000E+00  0.0000E+00
    -15.531  0.0000E+00  0.0000E+00
    -15.523  0.0000E+00  0.0000E+00
    -15.515  0.0000E+00  0.0000E+00
    -15.507  0.0000E+00  0.0000E+00
    -15.500  0.0000E+00  0.0000E+00
    -15.492  0.0000E+00  0.0000E+00
    -15.484  0.0000E+00  0.0000E+00
    -15.476  0.0000E+00  0.0000E+00
    -15.468  0.0000E+00  0.0000E+00
    -15.461  0.0000E+00  0.0000E+00
    -15.453  0.0000E+00  0.0000E+00
    -15.445  0.0000E+00  0.0000E+00
    -15.437  0.8216E+00  0.6416E-02
    -15.429  0.1088E+01  0.1386E-01
    -15.422  0.1354E+01  0.2338E-01
    -15.414  0.1040E+01  0.3170E-01
    -15.406  0.1042E+01  0.3982E-01
    -15.398  0.1066E+01  0.4798E-01
    -15.390  0.1135E+01  0.5656E-01
    -15.383  0.1204E+01  0.6568E-01
    -15.375  0.1092E+01  0.7444E-01
    -15.367  0.1072E+01  0.8288E-01
    -15.359  0.1064E+01  0.9117E-01
    -15.351  0.1089E+01  0.9957E-01
    -15.344  0.1113E+01  0.1082E+00
    -15.336  0.1138E+01  0.1169E+00
    -15.328  0.1162E+01  0.1259E+00
    -15.320  0.1124E+01  0.1350E+00
    -15.312  0.1113E+01  0.1437E+00
    -15.305  0.1103E+01  0.1523E+00
    -15.297  0.1106E+01  0.1609E+00
    -15.289  0.1116E+01  0.1696E+00
    -15.281  0.1126E+01  0.1783E+00
    -15.273  0.1136E+01  0.1871E+00
    -15.266  0.1146E+01  0.1960E+00
    -15.258  0.1163E+01  0.2050E+00
    -15.250  0.1181E+01  0.2142E+00
    -15.242  0.1157E+01  0.2233E+00
    -15.234  0.1150E+01  0.2323E+00
    -15.227  0.1142E+01  0.2413E+00
    -15.219  0.1145E+01  0.2502E+00
    -15.211  0.1150E+01  0.2591E+00
    -15.203  0.1155E+01  0.2681E+00
    -15.196  0.1163E+01  0.2771E+00
    -15.188  0.1170E+01  0.2862E+00
    -15.180  0.1181E+01  0.2954E+00
    -15.172  0.1192E+01  0.3047E+00
    -15.164  0.1202E+01  0.3140E+00
    -15.157  0.1213E+01  0.3234E+00
    -15.149  0.1196E+01  0.3328E+00
    -15.141  0.1191E+01  0.3421E+00
    -15.133  0.1186E+01  0.3514E+00
    -15.125  0.1193E+01  0.3607E+00
    -15.118  0.1198E+01  0.3700E+00
    -15.110  0.1203E+01  0.3793E+00
    -15.102  0.1208E+01  0.3887E+00
    -15.094  0.1214E+01  0.3982E+00
    -15.086  0.1222E+01  0.4077E+00
    -15.079  0.1229E+01  0.4172E+00
    -15.071  0.1236E+01  0.4269E+00
    -15.063  0.1244E+01  0.4365E+00
    -15.055  0.1252E+01  0.4462E+00
    -15.047  0.1262E+01  0.4561E+00
    -15.040  0.1251E+01  0.4658E+00
    -15.032  0.1251E+01  0.4756E+00
    -15.024  0.1253E+01  0.4853E+00
    -15.016  0.1257E+01  0.4951E+00
    -15.008  0.1262E+01  0.5049E+00
    -15.001  0.1266E+01  0.5148E+00
    -14.993  0.1271E+01  0.5247E+00
    -14.985  0.1277E+01  0.5346E+00
    -14.977  0.1283E+01  0.5446E+00
    -14.969  0.1291E+01  0.5546E+00
    -14.962  0.1299E+01  0.5647E+00
    -14.954  0.1307E+01  0.5749E+00
    -14.946  0.1315E+01  0.5851E+00
    -14.938  0.1322E+01  0.5954E+00
    -14.930  0.1330E+01  0.6057E+00
    -14.923  0.1326E+01  0.6161E+00
    -14.915  0.1329E+01  0.6264E+00
    -14.907  0.1332E+01  0.6368E+00
    -14.899  0.1337E+01  0.6472E+00
    -14.891  0.1342E+01  0.6576E+00
    -14.884  0.1348E+01  0.6681E+00
    -14.876  0.1356E+01  0.6787E+00
    -14.868  0.1364E+01  0.6893E+00
    -14.860  0.1371E+01  0.6999E+00
    -14.852  0.1379E+01  0.7106E+00
    -14.845  0.1386E+01  0.7214E+00
    -14.837  0.1393E+01  0.7323E+00
    -14.829  0.1400E+01  0.7431E+00
    -14.821  0.1408E+01  0.7541E+00
    -14.813  0.1415E+01  0.7651E+00
    -14.806  0.1420E+01  0.7762E+00
    -14.798  0.1425E+01  0.7873E+00
    -14.790  0.1431E+01  0.7984E+00
    -14.782  0.1441E+01  0.8096E+00
    -14.774  0.1449E+01  0.8209E+00
    -14.767  0.1458E+01  0.8322E+00
    -14.759  0.1466E+01  0.8436E+00
    -14.751  0.1474E+01  0.8551E+00
    -14.743  0.1481E+01  0.8666E+00
    -14.735  0.1489E+01  0.8782E+00
    -14.728  0.1497E+01  0.8898E+00
    -14.720  0.1505E+01  0.9015E+00
    -14.712  0.1513E+01  0.9133E+00
    -14.704  0.1521E+01  0.9251E+00
    -14.696  0.1529E+01  0.9370E+00
    -14.689  0.1540E+01  0.9490E+00
    -14.681  0.1552E+01  0.9610E+00
    -14.673  0.1565E+01  0.9732E+00
    -14.665  0.1577E+01  0.9854E+00
    -14.658  0.1588E+01  0.9978E+00
    -14.650  0.1598E+01  0.1010E+01
    -14.642  0.1609E+01  0.1023E+01
    -14.634  0.1619E+01  0.1035E+01
    -14.626  0.1629E+01  0.1048E+01
    -14.619  0.1639E+01  0.1061E+01
    -14.611  0.1648E+01  0.1073E+01
    -14.603  0.1658E+01  0.1086E+01
    -14.595  0.1668E+01  0.1099E+01
    -14.587  0.1685E+01  0.1112E+01
    -14.580  0.1697E+01  0.1126E+01
    -14.572  0.1710E+01  0.1139E+01
    -14.564  0.1721E+01  0.1152E+01
    -14.556  0.1732E+01  0.1166E+01
    -14.548  0.1758E+01  0.1179E+01
    -14.541  0.1777E+01  0.1193E+01
    -14.533  0.1792E+01  0.1207E+01
    -14.525  0.1807E+01  0.1221E+01
    -14.517  0.1821E+01  0.1235E+01
    -14.509  0.1836E+01  0.1249E+01
    -14.502  0.1849E+01  0.1264E+01
    -14.494  0.1868E+01  0.1278E+01
    -14.486  0.1888E+01  0.1293E+01
    -14.478  0.1905E+01  0.1308E+01
    -14.470  0.1921E+01  0.1323E+01
    -14.463  0.1937E+01  0.1338E+01
    -14.455  0.1952E+01  0.1353E+01
    -14.447  0.1967E+01  0.1368E+01
    -14.439  0.1982E+01  0.1384E+01
    -14.431  0.2777E+01  0.1412E+01
    -14.424  0.2164E+01  0.1432E+01
    -14.416  0.2107E+01  0.1449E+01
    -14.408  0.2050E+01  0.1465E+01
    -14.400  0.2000E+01  0.1481E+01
    -14.392  0.1804E+01  0.1496E+01
    -14.385  0.1773E+01  0.1510E+01
    -14.377  0.1740E+01  0.1523E+01
    -14.369  0.1707E+01  0.1537E+01
    -14.361  0.1673E+01  0.1550E+01
    -14.353  0.1572E+01  0.1562E+01
    -14.346  0.1546E+01  0.1574E+01
    -14.338  0.1520E+01  0.1586E+01
    -14.330  0.2900E+01  0.1611E+01
    -14.322  0.2529E+01  0.1635E+01
    -14.314  0.2610E+01  0.1655E+01
    -14.307  0.2666E+01  0.1675E+01
    -14.299  0.2759E+01  0.1696E+01
    -14.291  0.2648E+01  0.1717E+01
    -14.283  0.2709E+01  0.1738E+01
    -14.275  0.2768E+01  0.1759E+01
    -14.268  0.2827E+01  0.1781E+01
    -14.260  0.2801E+01  0.1803E+01
    -14.252  0.2829E+01  0.1825E+01
    -14.244  0.2955E+01  0.1847E+01
    -14.236  0.3066E+01  0.1871E+01
    -14.229  0.3147E+01  0.1895E+01
    -14.221  0.3249E+01  0.1920E+01
    -14.213  0.3303E+01  0.1945E+01
    -14.205  0.3384E+01  0.1971E+01
    -14.197  0.3465E+01  0.1998E+01
    -14.190  0.3535E+01  0.2025E+01
    -14.182  0.3604E+01  0.2053E+01
    -14.174  0.3910E+01  0.2083E+01
    -14.166  0.4072E+01  0.2114E+01
    -14.158  0.7824E+01  0.2160E+01
    -14.151  0.8051E+01  0.2223E+01
    -14.143  0.8568E+01  0.2288E+01
    -14.135  0.9293E+01  0.2357E+01
    -14.127  0.1028E+02  0.2433E+01
    -14.119  0.1109E+02  0.2517E+01
    -14.112  0.1255E+02  0.2608E+01
    -14.104  0.1959E+02  0.2723E+01
    -14.096  0.1440E+02  0.2864E+01
    -14.088  0.1176E+02  0.2961E+01
    -14.081  0.1021E+02  0.3048E+01
    -14.073  0.9500E+01  0.3124E+01
    -14.065  0.8931E+01  0.3196E+01
    -14.057  0.8447E+01  0.3263E+01
    -14.049  0.8049E+01  0.3328E+01
    -14.042  0.7654E+01  0.3389E+01
    -14.034  0.7273E+01  0.3447E+01
    -14.026  0.7153E+01  0.3503E+01
    -14.018  0.7173E+01  0.3559E+01
    -14.010  0.7022E+01  0.3615E+01
    -14.003  0.6572E+01  0.3668E+01
    -13.995  0.6714E+01  0.3721E+01
    -13.987  0.7224E+01  0.3773E+01
    -13.979  0.9156E+01  0.3831E+01
    -13.971  0.6517E+01  0.3885E+01
    -13.964  0.1020E+02  0.3947E+01
    -13.956  0.2108E+01  0.3996E+01
    -13.948  0.0000E+00  0.4000E+01
    -13.940  0.0000E+00  0.4000E+01
    -13.932  0.0000E+00  0.4000E+01
    -13.925  0.0000E+00  0.4000E+01
    -13.917  0.0000E+00  0.4000E+01
    -13.909  0.0000E+00  0.4000E+01
    -13.901  0.0000E+00  0.4000E+01
    -13.893  0.0000E+00  0.4000E+01
    -13.886  0.0000E+00  0.4000E+01
    -13.878  0.0000E+00  0.4000E+01
    -13.870  0.0000E+00  0.4000E+01
    -13.862  0.0000E+00  0.4000E+01
    -13.854  0.0000E+00  0.4000E+01
    -13.847  0.0000E+00  0.4000E+01
    -13.839  0.0000E+00  0.4000E+01
    -13.831  0.0000E+00  0.4000E+01
    -13.823  0.0000E+00  0.4000E+01
    -13.815  0.0000E+00  0.4000E+01
    -13.808  0.0000E+00  0.4000E+01
    -13.800  0.0000E+00  0.4000E+01
    -13.792  0.0000E+00  0.4000E+01
    -13.784  0.0000E+00  0.4000E+01
    -13.776  0.0000E+00  0.4000E+01
    -13.769  0.0000E+00  0.4000E+01
    -13.761  0.0000E+00  0.4000E+01
    -13.753  0.0000E+00  0.4000E+01
    -13.745  0.0000E+00  0.4000E+01
    -13.737  0.0000E+00  0.4000E+01
    -13.730  0.0000E+00  0.4000E+01
    -13.722  0.0000E+00  0.4000E+01
    -13.714  0.0000E+00  0.4000E+01
    -13.706  0.0000E+00  0.4000E+01
    -13.698  0.0000E+00  0.4000E+01
    -13.691  0.0000E+00  0.4000E+01
    -13.683  0.0000E+00  0.4000E+01
    -13.675  0.0000E+00  0.4000E+01
    -13.667  0.0000E+00  0.4000E+01
    -13.659  0.0000E+00  0.4000E+01
    -13.652  0.0000E+00  0.4000E+01
    -13.644  0.0000E+00  0.4000E+01
    -13.636  0.0000E+00  0.4000E+01
    -13.628  0.0000E+00  0.4000E+01
    -13.620  0.0000E+00  0.4000E+01
    -13.613  0.0000E+00  0.4000E+01
    -13.605  0.0000E+00  0.4000E+01
    -13.597  0.0000E+00  0.4000E+01
    -13.589  0.0000E+00  0.4000E+01
    -13.581  0.0000E+00  0.4000E+01
    -13.574  0.0000E+00  0.4000E+01
    -13.566  0.0000E+00  0.4000E+01
    -13.558  0.0000E+00  0.4000E+01
    -13.550  0.0000E+00  0.4000E+01
    -13.542  0.0000E+00  0.4000E+01
    -13.535  0.0000E+00  0.4000E+01
    -13.527  0.0000E+00  0.4000E+01
    -13.519  0.0000E+00  0.4000E+01
    -13.511  0.0000E+00  0.4000E+01
    -13.504  0.0000E+00  0.4000E+01
    -13.496  0.0000E+00  0.4000E+01
    -13.488  0.0000E+00  0.4000E+01
    -13.480  0.0000E+00  0.4000E+01
    -13.472  0.0000E+00  0.4000E+01
    -13.465  0.0000E+00  0.4000E+01
    -13.457  0.0000E+00  0.4000E+01
    -13.449  0.0000E+00  0.4000E+01
    -13.441  0.0000E+00  0.4000E+01
    -13.433  0.0000E+00  0.4000E+01
    -13.426  0.0000E+00  0.4000E+01
    -13.418  0.0000E+00  0.4000E+01
    -13.410  0.0000E+00  0.4000E+01
    -13.402  0.0000E+00  0.4000E+01
    -13.394  0.0000E+00  0.4000E+01
    -13.387  0.0000E+00  0.4000E+01
    -13.379  0.0000E+00  0.4000E+01
    -13.371  0.0000E+00  0.4000E+01
    -13.363  0.0000E+00  0.4000E+01
    -13.355  0.0000E+00  0.4000E+01
    -13.348  0.0000E+00  0.4000E+01
    -13.340  0.0000E+00  0.4000E+01
    -13.332  0.0000E+00  0.4000E+01
    -13.324  0.0000E+00  0.4000E+01
    -13.316  0.0000E+00  0.4000E+01
    -13.309  0.0000E+00  0.4000E+01
    -13.301  0.0000E+00  0.4000E+01
    -13.293  0.0000E+00  0.4000E+01
    -13.285  0.0000E+00  0.4000E+01
    -13.277  0.0000E+00  0.4000E+01
    -13.270  0.0000E+00  0.4000E+01
    -13.262  0.0000E+00  0.4000E+01
    -13.254  0.0000E+00  0.4000E+01
    -13.246  0.0000E+00  0.4000E+01
    -13.238  0.0000E+00  0.4000E+01
    -13.231  0.0000E+00  0.4000E+01
    -13.223  0.0000E+00  0.4000E+01
    -13.215  0.0000E+00  0.4000E+01
    -13.207  0.0000E+00  0.4000E+01
    -13.199  0.0000E+00  0.4000E+01
    -13.192  0.0000E+00  0.4000E+01
    -13.184  0.0000E+00  0.4000E+01
    -13.176  0.0000E+00  0.4000E+01
    -13.168  0.0000E+00  0.4000E+01
    -13.160  0.0000E+00  0.4000E+01
    -13.153  0.0000E+00  0.4000E+01
    -13.145  0.0000E+00  0.4000E+01
    -13.137  0.0000E+00  0.4000E+01
    -13.129  0.0000E+00  0.4000E+01
    -13.121  0.0000E+00  0.4000E+01
    -13.114  0.0000E+00  0.4000E+01
    -13.106  0.0000E+00  0.4000E+01
    -13.098  0.0000E+00  0.4000E+01
    -13.090  0.0000E+00  0.4000E+01
    -13.082  0.0000E+00  0.4000E+01
    -13.075  0.0000E+00  0.4000E+01
    -13.067  0.0000E+00  0.4000E+01
    -13.059  0.0000E+00  0.4000E+01
    -13.051  0.0000E+00  0.4000E+01
    -13.043  0.0000E+00  0.4000E+01
    -13.036  0.0000E+00  0.4000E+01
    -13.028  0.0000E+00  0.4000E+01
    -13.020  0.0000E+00  0.4000E+01
    -13.012  0.0000E+00  0.4000E+01
    -13.004  0.0000E+00  0.4000E+01
    -12.997  0.0000E+00  0.4000E+01
    -12.989  0.0000E+00  0.4000E+01
    -12.981  0.0000E+00  0.4000E+01
    -12.973  0.0000E+00  0.4000E+01
    -12.965  0.0000E+00  0.4000E+01
    -12.958  0.0000E+00  0.4000E+01
    -12.950  0.0000E+00  0.4000E+01
    -12.942  0.0000E+00  0.4000E+01
    -12.934  0.0000E+00  0.4000E+01
    -12.927  0.0000E+00  0.4000E+01
    -12.919  0.0000E+00  0.4000E+01
    -12.911  0.0000E+00  0.4000E+01
    -12.903  0.0000E+00  0.4000E+01
    -12.895  0.0000E+00  0.4000E+01
    -12.888  0.0000E+00  0.4000E+01
    -12.880  0.0000E+00  0.4000E+01
    -12.872  0.0000E+00  0.4000E+01
    -12.864  0.0000E+00  0.4000E+01
    -12.856  0.0000E+00  0.4000E+01
    -12.849  0.0000E+00  0.4000E+01
    -12.841  0.0000E+00  0.4000E+01
    -12.833  0.0000E+00  0.4000E+01
    -12.825  0.0000E+00  0.4000E+01
    -12.817  0.0000E+00  0.4000E+01
    -12.810  0.0000E+00  0.4000E+01
    -12.802  0.0000E+00  0.4000E+01
    -12.794  0.0000E+00  0.4000E+01
    -12.786  0.0000E+00  0.4000E+01
    -12.778  0.0000E+00  0.4000E+01
    -12.771  0.0000E+00  0.4000E+01
    -12.763  0.0000E+00  0.4000E+01
    -12.755  0.0000E+00  0.4000E+01
    -12.747  0.0000E+00  0.4000E+01
    -12.739  0.0000E+00  0.4000E+01
    -12.732  0.0000E+00  0.4000E+01
    -12.724  0.0000E+00  0.4000E+01
    -12.716  0.0000E+00  0.4000E+01
    -12.708  0.0000E+00  0.4000E+01
    -12.700  0.0000E+00  0.4000E+01
    -12.693  0.0000E+00  0.4000E+01
    -12.685  0.0000E+00  0.4000E+01
    -12.677  0.0000E+00  0.4000E+01
    -12.669  0.0000E+00  0.4000E+01
    -12.661  0.0000E+00  0.4000E+01
    -12.654  0.0000E+00  0.4000E+01
    -12.646  0.0000E+00  0.4000E+01
    -12.638  0.0000E+00  0.4000E+01
    -12.630  0.0000E+00  0.4000E+01
    -12.622  0.0000E+00  0.4000E+01
    -12.615  0.0000E+00  0.4000E+01
    -12.607  0.0000E+00  0.4000E+01
    -12.599  0.0000E+00  0.4000E+01
    -12.591  0.0000E+00  0.4000E+01
    -12.583  0.0000E+00  0.4000E+01
    -12.576  0.0000E+00  0.4000E+01
    -12.568  0.0000E+00  0.4000E+01
    -12.560  0.0000E+00  0.4000E+01
    -12.552  0.0000E+00  0.4000E+01
    -12.544  0.0000E+00  0.4000E+01
    -12.537  0.0000E+00  0.4000E+01
    -12.529  0.0000E+00  0.4000E+01
    -12.521  0.0000E+00  0.4000E+01
    -12.513  0.0000E+00  0.4000E+01
    -12.505  0.0000E+00  0.4000E+01
    -12.498  0.0000E+00  0.4000E+01
    -12.490  0.0000E+00  0.4000E+01
    -12.482  0.0000E+00  0.4000E+01
    -12.474  0.0000E+00  0.4000E+01
    -12.466  0.0000E+00  0.4000E+01
    -12.459  0.0000E+00  0.4000E+01
    -12.451  0.0000E+00  0.4000E+01
    -12.443  0.0000E+00  0.4000E+01
    -12.435  0.0000E+00  0.4000E+01
    -12.427  0.0000E+00  0.4000E+01
    -12.420  0.0000E+00  0.4000E+01
    -12.412  0.0000E+00  0.4000E+01
    -12.404  0.0000E+00  0.4000E+01
    -12.396  0.0000E+00  0.4000E+01
    -12.388  0.0000E+00  0.4000E+01
    -12.381  0.0000E+00  0.4000E+01
    -12.373  0.0000E+00  0.4000E+01
    -12.365  0.0000E+00  0.4000E+01
    -12.357  0.0000E+00  0.4000E+01
    -12.350  0.0000E+00  0.4000E+01
    -12.342  0.0000E+00  0.4000E+01
    -12.334  0.0000E+00  0.4000E+01
    -12.326  0.0000E+00  0.4000E+01
    -12.318  0.0000E+00  0.4000E+01
    -12.311  0.0000E+00  0.4000E+01
    -12.303  0.0000E+00  0.4000E+01
    -12.295  0.0000E+00  0.4000E+01
    -12.287  0.0000E+00  0.4000E+01
    -12.279  0.0000E+00  0.4000E+01
    -12.272  0.0000E+00  0.4000E+01
    -12.264  0.0000E+00  0.4000E+01
    -12.256  0.0000E+00  0.4000E+01
    -12.248  0.0000E+00  0.4000E+01
    -12.240  0.0000E+00  0.4000E+01
    -12.233  0.0000E+00  0.4000E+01
    -12.225  0.0000E+00  0.4000E+01
    -12.217  0.0000E+00  0.4000E+01
    -12.209  0.0000E+00  0.4000E+01
    -12.201  0.0000E+00  0.4000E+01
    -12.194  0.0000E+00  0.4000E+01
    -12.186  0.0000E+00  0.4000E+01
    -12.178  0.0000E+00  0.4000E+01
    -12.170  0.0000E+00  0.4000E+01
    -12.162  0.0000E+00  0.4000E+01
    -12.155  0.0000E+00  0.4000E+01
    -12.147  0.0000E+00  0.4000E+01
    -12.139  0.0000E+00  0.4000E+01
    -12.131  0.0000E+00  0.4000E+01
    -12.123  0.0000E+00  0.4000E+01
    -12.116  0.0000E+00  0.4000E+01
    -12.108  0.0000E+00  0.4000E+01
    -12.100  0.0000E+00  0.4000E+01
    -12.092  0.0000E+00  0.4000E+01
    -12.084  0.0000E+00  0.4000E+01
    -12.077  0.0000E+00  0.4000E+01
    -12.069  0.0000E+00  0.4000E+01
    -12.061  0.0000E+00  0.4000E+01
    -12.053  0.0000E+00  0.4000E+01
    -12.045  0.0000E+00  0.4000E+01
    -12.038  0.0000E+00  0.4000E+01
    -12.030  0.0000E+00  0.4000E+01
    -12.022  0.0000E+00  0.4000E+01
    -12.014  0.0000E+00  0.4000E+01
    -12.006  0.0000E+00  0.4000E+01
    -11.999  0.0000E+00  0.4000E+01
    -11.991  0.0000E+00  0.4000E+01
    -11.983  0.0000E+00  0.4000E+01
    -11.975  0.0000E+00  0.4000E+01
    -11.967  0.0000E+00  0.4000E+01
    -11.960  0.0000E+00  0.4000E+01
    -11.952  0.0000E+00  0.4000E+01
    -11.944  0.0000E+00  0.4000E+01
    -11.936  0.0000E+00  0.4000E+01
    -11.928  0.0000E+00  0.4000E+01
    -11.921  0.0000E+00  0.4000E+01
    -11.913  0.0000E+00  0.4000E+01
    -11.905  0.0000E+00  0.4000E+01
    -11.897  0.0000E+00  0.4000E+01
    -11.889  0.0000E+00  0.4000E+01
    -11.882  0.0000E+00  0.4000E+01
    -11.874  0.0000E+00  0.4000E+01
    -11.866  0.0000E+00  0.4000E+01
    -11.858  0.0000E+00  0.4000E+01
    -11.850  0.0000E+00  0.4000E+01
    -11.843  0.0000E+00  0.4000E+01
    -11.835  0.0000E+00  0.4000E+01
    -11.827  0.0000E+00  0.4000E+01
    -11.819  0.0000E+00  0.4000E+01
    -11.811  0.0000E+00  0.4000E+01
    -11.804  0.0000E+00  0.4000E+01
    -11.796  0.0000E+00  0.4000E+01
    -11.788  0.0000E+00  0.4000E+01
    -11.780  0.0000E+00  0.4000E+01
    -11.773  0.0000E+00  0.4000E+01
    -11.765  0.0000E+00  0.4000E+01
    -11.757  0.0000E+00  0.4000E+01
    -11.749  0.0000E+00  0.4000E+01
    -11.741  0.0000E+00  0.4000E+01
    -11.734  0.0000E+00  0.4000E+01
    -11.726  0.0000E+00  0.4000E+01
    -11.718  0.0000E+00  0.4000E+01
    -11.710  0.0000E+00  0.4000E+01
    -11.702  0.0000E+00  0.4000E+01
    -11.695  0.0000E+00  0.4000E+01
    -11.687  0.0000E+00  0.4000E+01
    -11.679  0.0000E+00  0.4000E+01
    -11.671  0.0000E+00  0.4000E+01
    -11.663  0.0000E+00  0.4000E+01
    -11.656  0.0000E+00  0.4000E+01
    -11.648  0.0000E+00  0.4000E+01
    -11.640  0.0000E+00  0.4000E+01
    -11.632  0.0000E+00  0.4000E+01
    -11.624  0.0000E+00  0.4000E+01
    -11.617  0.0000E+00  0.4000E+01
    -11.609  0.0000E+00  0.4000E+01
    -11.601  0.0000E+00  0.4000E+01
    -11.593  0.0000E+00  0.4000E+01
    -11.585  0.0000E+00  0.4000E+01
    -11.578  0.0000E+00  0.4000E+01
    -11.570  0.0000E+00  0.4000E+01
    -11.562  0.0000E+00  0.4000E+01
    -11.554  0.0000E+00  0.4000E+01
    -11.546  0.0000E+00  0.4000E+01
    -11.539  0.0000E+00  0.4000E+01
    -11.531  0.0000E+00  0.4000E+01
    -11.523  0.0000E+00  0.4000E+01
    -11.515  0.0000E+00  0.4000E+01
    -11.507  0.0000E+00  0.4000E+01
    -11.500  0.0000E+00  0.4000E+01
    -11.492  0.0000E+00  0.4000E+01
    -11.484  0.0000E+00  0.4000E+01
    -11.476  0.0000E+00  0.4000E+01
    -11.468  0.0000E+00  0.4000E+01
    -11.461  0.0000E+00  0.4000E+01
    -11.453  0.0000E+00  0.4000E+01
    -11.445  0.0000E+00  0.4000E+01
    -11.437  0.0000E+00  0.4000E+01
    -11.429  0.0000E+00  0.4000E+01
    -11.422  0.0000E+00  0.4000E+01
    -11.414  0.0000E+00  0.4000E+01
    -11.406  0.0000E+00  0.4000E+01
    -11.398  0.0000E+00  0.4000E+01
    -11.390  0.0000E+00  0.4000E+01
    -11.383  0.0000E+00  0.4000E+01
    -11.375  0.0000E+00  0.4000E+01
    -11.367  0.0000E+00  0.4000E+01
    -11.359  0.0000E+00  0.4000E+01
    -11.351  0.0000E+00  0.4000E+01
    -11.344  0.0000E+00  0.4000E+01
    -11.336  0.0000E+00  0.4000E+01
    -11.328  0.0000E+00  0.4000E+01
    -11.320  0.0000E+00  0.4000E+01
    -11.312  0.0000E+00  0.4000E+01
    -11.305  0.0000E+00  0.4000E+01
    -11.297  0.0000E+00  0.4000E+01
    -11.289  0.0000E+00  0.4000E+01
    -11.281  0.0000E+00  0.4000E+01
    -11.273  0.0000E+00  0.4000E+01
    -11.266  0.0000E+00  0.4000E+01
    -11.258  0.0000E+00  0.4000E+01
    -11.250  0.0000E+00  0.4000E+01
    -11.242  0.0000E+00  0.4000E+01
    -11.234  0.0000E+00  0.4000E+01
    -11.227  0.0000E+00  0.4000E+01
    -11.219  0.0000E+00  0.4000E+01
    -11.211  0.0000E+00  0.4000E+01
    -11.203  0.0000E+00  0.4000E+01
    -11.196  0.0000E+00  0.4000E+01
    -11.188  0.0000E+00  0.4000E+01
    -11.180  0.0000E+00  0.4000E+01
    -11.172  0.0000E+00  0.4000E+01
    -11.164  0.0000E+00  0.4000E+01
    -11.157  0.0000E+00  0.4000E+01
    -11.149  0.0000E+00  0.4000E+01
    -11.141  0.0000E+00  0.4000E+01
    -11.133  0.0000E+00  0.4000E+01
    -11.125  0.0000E+00  0.4000E+01
    -11.118  0.0000E+00  0.4000E+01
    -11.110  0.0000E+00  0.4000E+01
    -11.102  0.0000E+00  0.4000E+01
    -11.094  0.0000E+00  0.4000E+01
    -11.086  0.0000E+00  0.4000E+01
    -11.079  0.0000E+00  0.4000E+01
    -11.071  0.0000E+00  0.4000E+01
    -11.063  0.0000E+00  0.4000E+01
    -11.055  0.0000E+00  0.4000E+01
    -11.047  0.0000E+00  0.4000E+01
    -11.040  0.0000E+00  0.4000E+01
    -11.032  0.0000E+00  0.4000E+01
    -11.024  0.0000E+00  0.4000E+01
    -11.016  0.0000E+00  0.4000E+01
    -11.008  0.0000E+00  0.4000E+01