       N       E                     dE             d eps       ncg     rms          rms(c)
DAV:   1     0.105921979115E+03    0.10592E+03   -0.52843E+03   672   0.624E+02
DAV:   2    -0.142404745638E+00   -0.10606E+03   -0.10172E+03  1032   0.137E+02
DAV:   3    -0.102795126951E+02   -0.10137E+02   -0.10081E+02   976   0.503E+01
DAV:   4    -0.105557163699E+02   -0.27620E+00   -0.27595E+00   960   0.922E+00
DAV:   5    -0.105591022285E+02   -0.33859E-02   -0.33848E-02   984   0.105E+00    0.105E+01
DAV:   6    -0.101994225927E+02    0.35968E+00   -0.86678E-01   904   0.468E+00    0.565E+00
DAV:   7    -0.102006329911E+02   -0.12104E-02   -0.23253E-01   896   0.233E+00    0.220E+00
DAV:   8    -0.101939754789E+02    0.66575E-02   -0.15147E-02   920   0.692E-01    0.523E-01
DAV:   9    -0.101929899344E+02    0.98554E-03   -0.34535E-03   928   0.283E-01    0.263E-01
DAV:  10    -0.101922336545E+02    0.75628E-03   -0.93515E-04   912   0.142E-01    0.611E-02
DAV:  11    -0.101921454286E+02    0.88226E-04   -0.83567E-05   904   0.477E-02    0.302E-02
DAV:  12    -0.101919262472E+02    0.21918E-03   -0.25842E-04   808   0.636E-02    0.276E-02
DAV:  13    -0.101919654465E+02   -0.39199E-04   -0.62598E-05   848   0.327E-02    0.141E-02
DAV:  14    -0.101921917370E+02   -0.22629E-03   -0.30595E-05   888   0.236E-02    0.823E-03
DAV:  15    -0.101922675366E+02   -0.75800E-04   -0.17717E-06   784   0.743E-03    0.561E-03
DAV:  16    -0.101923670588E+02   -0.99522E-04   -0.39153E-06   816   0.805E-03    0.464E-03
DAV:  17    -0.101923836549E+02   -0.16596E-04   -0.82236E-07   720   0.410E-03    0.115E-03
DAV:  18    -0.101923908930E+02   -0.72381E-05   -0.44438E-07   672   0.234E-03    0.199E-03
DAV:  19    -0.101923918889E+02   -0.99589E-06   -0.63046E-08   640   0.124E-03
   1 F= -.10192392E+02 E0= -.10192389E+02  d E =-.101924E+02
       N       E                     dE             d eps       ncg     rms          rms(c)
DAV:   1    -0.101925111063E+02   -0.12021E-03   -0.47938E-03   672   0.421E-01    0.392E-02
DAV:   2    -0.101925197856E+02   -0.86792E-05   -0.17663E-04   936   0.766E-02    0.101E-02
DAV:   3    -0.101925194765E+02    0.30910E-06   -0.60094E-06   920   0.149E-02    0.601E-03
DAV:   4    -0.101925193148E+02    0.16171E-06   -0.32016E-07   560   0.349E-03    0.436E-03
DAV:   5    -0.101925191917E+02    0.12305E-06   -0.15833E-07   528   0.240E-03
   2 F= -.10192519E+02 E0= -.10192517E+02  d E =-.127303E-03
       N       E                     dE             d eps       ncg     rms          rms(c)
DAV:   1    -0.101925857207E+02   -0.66406E-04   -0.17454E-02   672   0.802E-01    0.743E-02
DAV:   2    -0.101926181380E+02   -0.32417E-04   -0.64336E-04   912   0.146E-01    0.192E-02
DAV:   3    -0.101926172714E+02    0.86667E-06   -0.21849E-05  1032   0.283E-02    0.120E-02
DAV:   4    -0.101926169860E+02    0.28534E-06   -0.10815E-06   656   0.638E-03    0.916E-03
DAV:   5    -0.101926167618E+02    0.22428E-06   -0.63215E-07   560   0.472E-03
   3 F= -.10192617E+02 E0= -.10192615E+02  d E =-.224873E-03
