<?xml version="1.0" encoding="ISO-8859-1"?>
<modeling>
 <generator>
  <i name="program" type="string">vasp </i>
  <i name="version" type="string">5.4.1  </i>
  <i name="subversion" type="string">24Jun15 (build Jan 13 2016 15:26:25) complex                          parallel </i>
  <i name="platform" type="string">IFC91_ompi </i>
  <i name="date" type="string">2017 05 05 </i>
  <i name="time" type="string">14:22:10 </i>
 </generator>
 <incar>
  <i type="string" name="SYSTEM"> 2D Structure</i>
  <i type="string" name="PREC">normal</i>
  <i type="int" name="NELMIN">     5</i>
  <i type="int" name="IBRION">     2</i>
  <i name="EDIFF">      0.00000100</i>
  <i name="EDIFFG">     -0.01000000</i>
  <i type="int" name="NSW">   100</i>
  <i type="int" name="ISIF">     2</i>
  <i type="int" name="NEDOS">  3001</i>
  <i type="int" name="ISMEAR">     0</i>
  <i name="SIGMA">      0.10000000</i>
  <v type="int" name="KPOINT_BSE">    -1     0     0     0</v>
 </incar>
 <kpoints>
  <generation param="Monkhorst-Pack">
   <v type="int" name="divisions">      12       12        1 </v>
   <v name="usershift">      0.00000000       0.00000000       0.00000000 </v>
   <v name="genvec1">      0.08333333       0.00000000       0.00000000 </v>
   <v name="genvec2">      0.00000000       0.08333333       0.00000000 </v>
   <v name="genvec3">      0.00000000       0.00000000       1.00000000 </v>
   <v name="shift">      0.50000000       0.50000000       0.00000000 </v>
  </generation>
  <varray name="kpointlist" >
   <v>       0.04166667       0.04166667       0.00000000 </v>
   <v>       0.12500000       0.04166667       0.00000000 </v>
   <v>       0.20833333       0.04166667       0.00000000 </v>
   <v>       0.29166667       0.04166667       0.00000000 </v>
   <v>       0.37500000       0.04166667       0.00000000 </v>
   <v>       0.45833333       0.04166667       0.00000000 </v>
   <v>       0.12500000       0.12500000       0.00000000 </v>
   <v>       0.20833333       0.12500000       0.00000000 </v>
   <v>       0.29166667       0.12500000       0.00000000 </v>
   <v>       0.37500000       0.12500000       0.00000000 </v>
   <v>       0.45833333       0.12500000       0.00000000 </v>
   <v>       0.20833333       0.20833333       0.00000000 </v>
   <v>       0.29166667       0.20833333       0.00000000 </v>
   <v>       0.37500000       0.20833333       0.00000000 </v>
   <v>       0.45833333       0.20833333       0.00000000 </v>
   <v>       0.29166667       0.29166667       0.00000000 </v>
   <v>       0.37500000       0.29166667       0.00000000 </v>
   <v>       0.45833333       0.29166667       0.00000000 </v>
   <v>       0.37500000       0.37500000       0.00000000 </v>
   <v>       0.45833333       0.37500000       0.00000000 </v>
   <v>       0.45833333       0.45833333       0.00000000 </v>
  </varray>
  <varray name="weights" >
   <v>       0.02777778 </v>
   <v>       0.05555556 </v>
   <v>       0.05555556 </v>
   <v>       0.05555556 </v>
   <v>       0.05555556 </v>
   <v>       0.05555556 </v>
   <v>       0.02777778 </v>
   <v>       0.05555556 </v>
   <v>       0.05555556 </v>
   <v>       0.05555556 </v>
   <v>       0.05555556 </v>
   <v>       0.02777778 </v>
   <v>       0.05555556 </v>
   <v>       0.05555556 </v>
   <v>       0.05555556 </v>
   <v>       0.02777778 </v>
   <v>       0.05555556 </v>
   <v>       0.05555556 </v>
   <v>       0.02777778 </v>
   <v>       0.05555556 </v>
   <v>       0.02777778 </v>
  </varray>
 </kpoints>
 <parameters>
  <separator name="general" >
   <i type="string" name="SYSTEM">2D Structure</i>
   <i type="logical" name="LCOMPAT"> F  </i>
  </separator>
  <separator name="electronic" >
   <i type="string" name="PREC">normal</i>
   <i name="ENMAX">    318.61400000</i>
   <i name="ENAUG">    535.51400000</i>
   <i name="EDIFF">      0.00000100</i>
   <i type="int" name="IALGO">    38</i>
   <i type="int" name="IWAVPR">    11</i>
   <i type="int" name="NBANDS">    16</i>
   <i name="NELECT">     20.00000000</i>
   <i type="int" name="TURBO">     0</i>
   <i type="int" name="IRESTART">     0</i>
   <i type="int" name="NREBOOT">     0</i>
   <i type="int" name="NMIN">     0</i>
   <i name="EREF">      0.00000000</i>
   <separator name="electronic smearing" >
    <i type="int" name="ISMEAR">     0</i>
    <i name="SIGMA">      0.10000000</i>
    <i name="KSPACING">      0.50000000</i>
    <i type="logical" name="KGAMMA"> T  </i>
   </separator>
   <separator name="electronic projectors" >
    <i type="logical" name="LREAL"> F  </i>
    <v name="ROPT">      0.00000000      0.00000000</v>
    <i type="int" name="LMAXPAW">  -100</i>
    <i type="int" name="LMAXMIX">     2</i>
    <i type="logical" name="NLSPLINE"> F  </i>
   </separator>
   <separator name="electronic startup" >
    <i type="int" name="ISTART">     0</i>
    <i type="int" name="ICHARG">     2</i>
    <i type="int" name="INIWAV">     1</i>
   </separator>
   <separator name="electronic spin" >
    <i type="int" name="ISPIN">     1</i>
    <i type="logical" name="LNONCOLLINEAR"> F  </i>
    <v name="MAGMOM">      1.00000000      1.00000000      1.00000000      1.00000000</v>
    <i name="NUPDOWN">     -1.00000000</i>
    <i type="logical" name="LSORBIT"> F  </i>
    <v name="SAXIS">      0.00000000      0.00000000      1.00000000</v>
    <i type="logical" name="LSPIRAL"> F  </i>
    <v name="QSPIRAL">      0.00000000      0.00000000      0.00000000</v>
    <i type="logical" name="LZEROZ"> F  </i>
   </separator>
   <separator name="electronic exchange-correlation" >
    <i type="logical" name="LASPH"> F  </i>
    <i type="logical" name="LMETAGGA"> F  </i>
   </separator>
   <separator name="electronic convergence" >
    <i type="int" name="NELM">    60</i>
    <i type="int" name="NELMDL">    -5</i>
    <i type="int" name="NELMIN">     5</i>
    <i name="ENINI">    318.61400000</i>
    <separator name="electronic convergence detail" >
     <i type="logical" name="LDIAG"> T  </i>
     <i type="logical" name="LSUBROT"> F  </i>
     <i name="WEIMIN">      0.00100000</i>
     <i name="EBREAK">      0.00000002</i>
     <i name="DEPER">      0.30000000</i>
     <i type="int" name="NRMM">     4</i>
     <i name="TIME">      0.40000000</i>
    </separator>
   </separator>
   <separator name="electronic mixer" >
    <i name="AMIX">      0.40000000</i>
    <i name="BMIX">      1.00000000</i>
    <i name="AMIN">      0.10000000</i>
    <i name="AMIX_MAG">      1.60000000</i>
    <i name="BMIX_MAG">      1.00000000</i>
    <separator name="electronic mixer details" >
     <i type="int" name="IMIX">     4</i>
     <i type="logical" name="MIXFIRST"> F  </i>
     <i type="int" name="MAXMIX">   -45</i>
     <i name="WC">    100.00000000</i>
     <i type="int" name="INIMIX">     1</i>
     <i type="int" name="MIXPRE">     1</i>
     <i type="int" name="MREMOVE">     5</i>
    </separator>
   </separator>
   <separator name="electronic dipolcorrection" >
    <i type="logical" name="LDIPOL"> F  </i>
    <i type="logical" name="LMONO"> F  </i>
    <i type="int" name="IDIPOL">     0</i>
    <i name="EPSILON">      1.00000000</i>
    <v name="DIPOL">   -100.00000000   -100.00000000   -100.00000000</v>
    <i name="EFIELD">      0.00000000</i>
   </separator>
  </separator>
  <separator name="grids" >
   <i type="int" name="NGX">    18</i>
   <i type="int" name="NGY">    18</i>
   <i type="int" name="NGZ">    70</i>
   <i type="int" name="NGXF">    36</i>
   <i type="int" name="NGYF">    36</i>
   <i type="int" name="NGZF">   140</i>
   <i type="logical" name="ADDGRID"> F  </i>
  </separator>
  <separator name="ionic" >
   <i type="int" name="NSW">   100</i>
   <i type="int" name="IBRION">     2</i>
   <i type="int" name="ISIF">     2</i>
   <i name="PSTRESS">      0.00000000</i>
   <i name="EDIFFG">     -0.01000000</i>
   <i type="int" name="NFREE">     1</i>
   <i name="POTIM">      0.50000000</i>
   <i name="SMASS">     -3.00000000</i>
   <i name="SCALEE">      1.00000000</i>
  </separator>
  <separator name="ionic md" >
   <i name="TEBEG">      0.00010000</i>
   <i name="TEEND">      0.00010000</i>
   <i type="int" name="NBLOCK">     1</i>
   <i type="int" name="KBLOCK">   100</i>
   <i type="int" name="NPACO">   256</i>
   <i name="APACO">     16.00000000</i>
  </separator>
  <separator name="symmetry" >
   <i type="int" name="ISYM">     2</i>
   <i name="SYMPREC">      0.00001000</i>
  </separator>
  <separator name="dos" >
   <i type="logical" name="LORBIT"> F  </i>
   <v name="RWIGS">     -1.00000000     -1.00000000</v>
   <i type="int" name="NEDOS">  3001</i>
   <i name="EMIN">     10.00000000</i>
   <i name="EMAX">    -10.00000000</i>
   <i name="EFERMI">      0.00000000</i>
  </separator>
  <separator name="writing" >
   <i type="int" name="NWRITE">     2</i>
   <i type="logical" name="LWAVE"> T  </i>
   <i type="logical" name="LCHARG"> T  </i>
   <i type="logical" name="LPARD"> F  </i>
   <i type="logical" name="LVTOT"> F  </i>
   <i type="logical" name="LVHAR"> F  </i>
   <i type="logical" name="LELF"> F  </i>
   <i type="logical" name="LOPTICS"> F  </i>
   <v name="STM">      0.00000000      0.00000000      0.00000000      0.00000000      0.00000000      0.00000000      0.00000000</v>
  </separator>
  <separator name="performance" >
   <i type="int" name="NPAR">     8</i>
   <i type="int" name="NSIM">     4</i>
   <i type="int" name="NBLK">    -1</i>
   <i type="logical" name="LPLANE"> T  </i>
   <i type="logical" name="LSCALAPACK"> F  </i>
   <i type="logical" name="LSCAAWARE"> F  </i>
   <i type="logical" name="LSCALU"> F  </i>
   <i type="logical" name="LASYNC"> F  </i>
   <i type="logical" name="LORBITALREAL"> F  </i>
  </separator>
  <separator name="miscellaneous" >
   <i type="int" name="IDIOT">     3</i>
   <i type="logical" name="LMUSIC"> F  </i>
   <v name="POMASS">     10.81100000    126.90400000</v>
   <v name="DARWINR">      0.00000000      0.00000000</v>
   <v name="DARWINV">      1.00000000      1.00000000</v>
   <i type="logical" name="LCORR"> T  </i>
  </separator>
  <i type="logical" name="GGA_COMPAT"> T  </i>
  <i type="logical" name="LBERRY"> F  </i>
  <i type="int" name="ICORELEVEL">     0</i>
  <i type="logical" name="LDAU"> F  </i>
  <i type="int" name="I_CONSTRAINED_M">     0</i>
  <separator name="electronic exchange-correlation" >
   <i type="string" name="GGA">--</i>
   <i type="int" name="VOSKOWN">     0</i>
   <i type="logical" name="LHFCALC"> F  </i>
   <i type="string" name="PRECFOCK"></i>
   <i type="logical" name="LSYMGRAD"> F  </i>
   <i type="logical" name="LHFONE"> F  </i>
   <i type="logical" name="LRHFCALC"> F  </i>
   <i type="logical" name="LTHOMAS"> F  </i>
   <i type="logical" name="LMODELHF"> F  </i>
   <i name="ENCUT4O">     -1.00000000</i>
   <i type="int" name="EXXOEP">     0</i>
   <i type="int" name="FOURORBIT">     0</i>
   <i name="AEXX">      0.00000000</i>
   <i name="HFALPHA">      0.00000000</i>
   <i name="MCALPHA">      0.00000000</i>
   <i name="ALDAX">      1.00000000</i>
   <i name="AGGAX">      1.00000000</i>
   <i name="ALDAC">      1.00000000</i>
   <i name="AGGAC">      1.00000000</i>
   <i type="int" name="NKREDX">     1</i>
   <i type="int" name="NKREDY">     1</i>
   <i type="int" name="NKREDZ">     1</i>
   <i type="logical" name="SHIFTRED"> F  </i>
   <i type="logical" name="ODDONLY"> F  </i>
   <i type="logical" name="EVENONLY"> F  </i>
   <i type="int" name="LMAXFOCK">     0</i>
   <i type="int" name="NMAXFOCKAE">     0</i>
   <i type="logical" name="LFOCKAEDFT"> F  </i>
   <i name="HFSCREEN">      0.00000000</i>
   <i name="HFSCREENC">      0.00000000</i>
   <i type="int" name="NBANDSGWLOW">     0</i>
  </separator>
  <separator name="vdW DFT" >
   <i type="logical" name="LUSE_VDW"> F  </i>
   <i name="Zab_VDW">     -0.84910000</i>
   <i name="PARAM1">      0.12340000</i>
   <i name="PARAM2">      1.00000000</i>
   <i name="PARAM3">      0.00000000</i>
  </separator>
  <separator name="model GW" >
   <i type="int" name="MODEL_GW">     0</i>
   <i name="MODEL_EPS0">     35.23633572</i>
   <i name="MODEL_ALPHA">      1.00000000</i>
  </separator>
  <separator name="linear response parameters" >
   <i type="logical" name="LEPSILON"> F  </i>
   <i type="logical" name="LRPA"> F  </i>
   <i type="logical" name="LNABLA"> F  </i>
   <i type="logical" name="LVEL"> F  </i>
   <i type="int" name="KINTER">     0</i>
   <i name="CSHIFT">      0.10000000</i>
   <i name="OMEGAMAX">     -1.00000000</i>
   <i name="DEG_THRESHOLD">      0.00200000</i>
  </separator>
  <separator name="orbital magnetization" >
   <i type="logical" name="NUCIND"> F  </i>
   <v name="MAGPOS">      0.00000000      0.00000000      0.00000000</v>
   <i type="logical" name="LNICSALL"> T  </i>
   <i type="logical" name="ORBITALMAG"> F  </i>
   <i type="logical" name="LMAGBLOCH"> F  </i>
   <i type="logical" name="LCHIMAG"> F  </i>
   <i type="logical" name="LGAUGE"> T  </i>
   <i type="int" name="MAGATOM">     0</i>
   <v name="MAGDIPOL">      0.00000000      0.00000000      0.00000000</v>
   <v name="AVECCONST">      0.00000000      0.00000000      0.00000000</v>
  </separator>
  <separator name="response functions" >
   <i type="logical" name="LADDER"> F  </i>
   <i type="logical" name="LFXC"> F  </i>
   <i type="logical" name="LHARTREE"> T  </i>
   <i type="int" name="IBSE">     0</i>
   <v type="int" name="KPOINT">    -1     0     0     0</v>
   <i type="logical" name="LTCTE"> F  </i>
   <i type="logical" name="LTETE"> F  </i>
   <i type="logical" name="LTRIPLET"> F  </i>
   <i type="logical" name="LFXCEPS"> F  </i>
   <i type="logical" name="LFXHEG"> F  </i>
   <i type="int" name="NATURALO">     0</i>
   <i type="logical" name="L2ORDER"> F  </i>
   <i type="logical" name="LUSEW"> F  </i>
   <i name="ENCUTGW">     -2.00000000</i>
   <i name="ENCUTGWSOFT">     -2.00000000</i>
   <i name="ENCUTLF">     -1.00000000</i>
   <i type="int" name="LMAXMP2">    -1</i>
   <i name="SCISSOR">      0.00000000</i>
   <i type="int" name="NOMEGA">     0</i>
   <i type="int" name="NOMEGAR">     0</i>
   <i type="int" name="NBANDSGW">    -1</i>
   <i type="int" name="NBANDSO">    -1</i>
   <i type="int" name="NBANDSV">    -1</i>
   <i type="int" name="NELM">     1</i>
   <i type="int" name="NELMHF">     1</i>
   <i type="int" name="DIM">     3</i>
   <i type="int" name="ANTIRES">     0</i>
   <i name="OMEGAMAX">    -30.00000000</i>
   <i name="OMEGAMIN">    -30.00000000</i>
   <i name="OMEGATL">   -200.00000000</i>
   <i type="int" name="OMEGAGRID">     0</i>
   <i name="CSHIFT">     -0.10000000</i>
   <i type="logical" name="SELFENERGY"> F  </i>
   <i type="logical" name="LSPECTRAL"> F  </i>
   <i type="logical" name="LSPECTRALGW"> F  </i>
   <i type="logical" name="LSINGLES"> F  </i>
   <i type="logical" name="LFERMIGW"> F  </i>
   <i type="logical" name="ODDONLYGW"> F  </i>
   <i type="logical" name="EVENONLYGW"> F  </i>
   <i type="int" name="NKREDLFX">     1</i>
   <i type="int" name="NKREDLFY">     1</i>
   <i type="int" name="NKREDLFZ">     1</i>
   <i type="int" name="MAXMEM">  1800</i>
   <i type="int" name="TELESCOPE">     0</i>
   <i type="int" name="TAUPAR">     1</i>
   <i type="int" name="OMEGAPAR">    -1</i>
   <i name="LAMBDA">      1.00000000</i>
  </separator>
  <separator name="External order field" >
   <i name="OFIELD_KAPPA">      0.00000000</i>
   <v name="OFIELD_K">      0.00000000      0.00000000      0.00000000</v>
   <i name="OFIELD_Q6_NEAR">      0.00000000</i>
   <i name="OFIELD_Q6_FAR">      0.00000000</i>
   <i name="OFIELD_A">      0.00000000</i>
  </separator>
 </parameters>
 <atominfo>
  <atoms>       4 </atoms>
  <types>       2 </types>
  <array name="atoms" >
   <dimension dim="1">ion</dimension>
   <field type="string">element</field>
   <field type="int">atomtype</field>
   <set>
    <rc><c>B </c><c>   1</c></rc>
    <rc><c>B </c><c>   1</c></rc>
    <rc><c>I </c><c>   2</c></rc>
    <rc><c>I </c><c>   2</c></rc>
   </set>
  </array>
  <array name="atomtypes" >
   <dimension dim="1">type</dimension>
   <field type="int">atomspertype</field>
   <field type="string">element</field>
   <field>mass</field>
   <field>valence</field>
   <field type="string">pseudopotential</field>
   <set>
    <rc><c>   2</c><c>B </c><c>     10.81100000</c><c>      3.00000000</c><c>  PAW_PBE B 06Sep2000                   </c></rc>
    <rc><c>   2</c><c>I </c><c>    126.90400000</c><c>      7.00000000</c><c>  PAW_PBE I 08Apr2002                   </c></rc>
   </set>
  </array>
 </atominfo>
 <structure name="initialpos" >
  <crystal>
   <varray name="basis" >
    <v>       3.91755646       0.00000000       0.00000000 </v>
    <v>       0.00000000       3.91755646       0.00000000 </v>
    <v>       0.00000000       0.00000000      15.30625523 </v>
   </varray>
   <i name="volume">    234.90890477 </i>
   <varray name="rec_basis" >
    <v>       0.25526116       0.00000000       0.00000000 </v>
    <v>       0.00000000       0.25526116       0.00000000 </v>
    <v>       0.00000000       0.00000000       0.06533277 </v>
   </varray>
  </crystal>
  <varray name="positions" >
   <v>       0.00000000       0.25000000       0.56640538 </v>
   <v>       0.50000000       0.75000000       0.43360461 </v>
   <v>       0.00000000       0.25000000       0.41183487 </v>
   <v>       0.50000000       0.75000000       0.58817514 </v>
  </varray>
 </structure>
 <calculation>
  <scstep>
   <time name="dav">    0.82    0.82</time>
   <time name="total">    0.86    0.94</time>
   <energy>
    <i name="alphaZ">      7.14233205 </i>
    <i name="ewald">    692.31148802 </i>
    <i name="hartreedc">  -1387.45942329 </i>
    <i name="XCdc">    -13.95270270 </i>
    <i name="pawpsdc">    630.85585710 </i>
    <i name="pawaedc">   -576.58014880 </i>
    <i name="eentropy">     -0.00906362 </i>
    <i name="bandstr">    -20.44189217 </i>
    <i name="atom">    774.05553253 </i>
    <i name="e_fr_energy">    105.92197911 </i>
    <i name="e_wo_entrp">    105.93104273 </i>
    <i name="e_0_energy">    105.92651092 </i>
   </energy>
  </scstep>
  <scstep>
   <time name="dav">    1.42    1.42</time>
   <time name="total">    1.42    1.57</time>
   <energy>
    <i name="e_fr_energy">     -0.14240475 </i>
    <i name="e_wo_entrp">     -0.14159559 </i>
    <i name="e_0_energy">     -0.14200017 </i>
   </energy>
  </scstep>
  <scstep>
   <time name="dav">    1.08    1.08</time>
   <time name="total">    1.08    1.18</time>
   <energy>
    <i name="e_fr_energy">    -10.27951270 </i>
    <i name="e_wo_entrp">    -10.27919150 </i>
    <i name="e_0_energy">    -10.27935210 </i>
   </energy>
  </scstep>
  <scstep>
   <time name="dav">    1.06    1.06</time>
   <time name="total">    1.06    1.14</time>
   <energy>
    <i name="e_fr_energy">    -10.55571637 </i>
    <i name="e_wo_entrp">    -10.55541244 </i>
    <i name="e_0_energy">    -10.55556440 </i>
   </energy>
  </scstep>
  <scstep>
   <time name="dav">    1.08    1.08</time>
   <time name="total">    1.17    1.29</time>
   <energy>
    <i name="e_fr_energy">    -10.55910223 </i>
    <i name="e_wo_entrp">    -10.55879595 </i>
    <i name="e_0_energy">    -10.55894909 </i>
   </energy>
  </scstep>
  <scstep>
   <time name="dav">    1.02    1.02</time>
   <time name="total">    1.14    1.26</time>
   <energy>
    <i name="e_fr_energy">    -10.19942259 </i>
    <i name="e_wo_entrp">    -10.19941878 </i>
    <i name="e_0_energy">    -10.19942069 </i>
   </energy>
  </scstep>
  <scstep>
   <time name="dav">    1.02    1.02</time>
   <time name="total">    1.13    1.27</time>
   <energy>
    <i name="e_fr_energy">    -10.20063299 </i>
    <i name="e_wo_entrp">    -10.20062927 </i>
    <i name="e_0_energy">    -10.20063113 </i>
   </energy>
  </scstep>
  <scstep>
   <time name="dav">    1.04    1.04</time>
   <time name="total">    1.16    1.27</time>
   <energy>
    <i name="e_fr_energy">    -10.19397548 </i>
    <i name="e_wo_entrp">    -10.19396893 </i>
    <i name="e_0_energy">    -10.19397220 </i>
   </energy>
  </scstep>
  <scstep>
   <time name="dav">    1.05    1.05</time>
   <time name="total">    1.17    1.33</time>
   <energy>
    <i name="e_fr_energy">    -10.19298993 </i>
    <i name="e_wo_entrp">    -10.19298418 </i>
    <i name="e_0_energy">    -10.19298706 </i>
   </energy>
  </scstep>
  <scstep>
   <time name="dav">    1.03    1.03</time>
   <time name="total">    1.15    1.27</time>
   <energy>
    <i name="e_fr_energy">    -10.19223365 </i>
    <i name="e_wo_entrp">    -10.19222795 </i>
    <i name="e_0_energy">    -10.19223080 </i>
   </energy>
  </scstep>
  <scstep>
   <time name="dav">    1.37    1.38</time>
   <time name="total">    1.52    1.63</time>
   <energy>
    <i name="e_fr_energy">    -10.19214543 </i>
    <i name="e_wo_entrp">    -10.19213969 </i>
    <i name="e_0_energy">    -10.19214256 </i>
   </energy>
  </scstep>
  <scstep>
   <time name="dav">    1.24    1.24</time>
   <time name="total">    1.36    1.48</time>
   <energy>
    <i name="e_fr_energy">    -10.19192625 </i>
    <i name="e_wo_entrp">    -10.19192066 </i>
    <i name="e_0_energy">    -10.19192345 </i>
   </energy>
  </scstep>
  <scstep>
   <time name="dav">    0.97    0.97</time>
   <time name="total">    1.09    1.21</time>
   <energy>
    <i name="e_fr_energy">    -10.19196545 </i>
    <i name="e_wo_entrp">    -10.19195990 </i>
    <i name="e_0_energy">    -10.19196267 </i>
   </energy>
  </scstep>
  <scstep>
   <time name="dav">    1.01    1.01</time>
   <time name="total">    1.13    1.23</time>
   <energy>
    <i name="e_fr_energy">    -10.19219174 </i>
    <i name="e_wo_entrp">    -10.19218615 </i>
    <i name="e_0_energy">    -10.19218894 </i>
   </energy>
  </scstep>
  <scstep>
   <time name="dav">    0.93    0.93</time>
   <time name="total">    1.05    1.19</time>
   <energy>
    <i name="e_fr_energy">    -10.19226754 </i>
    <i name="e_wo_entrp">    -10.19226199 </i>
    <i name="e_0_energy">    -10.19226476 </i>
   </energy>
  </scstep>
  <scstep>
   <time name="dav">    0.95    0.95</time>
   <time name="total">    1.07    1.23</time>
   <energy>
    <i name="e_fr_energy">    -10.19236706 </i>
    <i name="e_wo_entrp">    -10.19236153 </i>
    <i name="e_0_energy">    -10.19236429 </i>
   </energy>
  </scstep>
  <scstep>
   <time name="dav">    0.87    0.87</time>
   <time name="total">    0.99    1.11</time>
   <energy>
    <i name="e_fr_energy">    -10.19238365 </i>
    <i name="e_wo_entrp">    -10.19237810 </i>
    <i name="e_0_energy">    -10.19238088 </i>
   </energy>
  </scstep>
  <scstep>
   <time name="dav">    0.83    0.83</time>
   <time name="total">    0.95    1.06</time>
   <energy>
    <i name="e_fr_energy">    -10.19239089 </i>
    <i name="e_wo_entrp">    -10.19238534 </i>
    <i name="e_0_energy">    -10.19238812 </i>
   </energy>
  </scstep>
  <scstep>
   <time name="dav">    0.80    0.80</time>
   <time name="total">    0.83    0.99</time>
   <energy>
    <i name="alphaZ">      7.14233205 </i>
    <i name="ewald">    692.31148802 </i>
    <i name="hartreedc">  -1396.19645864 </i>
    <i name="XCdc">    -13.68204886 </i>
    <i name="pawpsdc">   1144.33440842 </i>
    <i name="pawaedc">  -1090.14924741 </i>
    <i name="eentropy">     -0.00000555 </i>
    <i name="bandstr">   -128.00839245 </i>
    <i name="atom">    774.05553253 </i>
    <i name="e_fr_energy">    -10.19239189 </i>
    <i name="e_wo_entrp">    -10.19238634 </i>
    <i name="e_0_energy">    -10.19238912 </i>
   </energy>
  </scstep>
  <structure>
   <crystal>
    <varray name="basis" >
     <v>       3.91755646       0.00000000       0.00000000 </v>
     <v>       0.00000000       3.91755646       0.00000000 </v>
     <v>       0.00000000       0.00000000      15.30625523 </v>
    </varray>
    <i name="volume">    234.90890477 </i>
    <varray name="rec_basis" >
     <v>       0.25526116       0.00000000       0.00000000 </v>
     <v>       0.00000000       0.25526116       0.00000000 </v>
     <v>       0.00000000       0.00000000       0.06533277 </v>
    </varray>
   </crystal>
   <varray name="positions" >
    <v>       0.00000000       0.25000000       0.56640538 </v>
    <v>       0.50000000       0.75000000       0.43360461 </v>
    <v>       0.00000000       0.25000000       0.41183487 </v>
    <v>       0.50000000       0.75000000       0.58817514 </v>
   </varray>
  </structure>
  <varray name="forces" >
   <v>       0.00000000      -0.00000000       0.03410206 </v>
   <v>      -0.00000000       0.00000000      -0.03410206 </v>
   <v>      -0.00000000       0.00000000      -0.02090435 </v>
   <v>      -0.00000000      -0.00000000       0.02090435 </v>
  </varray>
  <varray name="stress" >
   <v>      -0.44086422       0.00000000       0.00000000 </v>
   <v>       0.00000000      -0.44086422      -0.00000000 </v>
   <v>       0.00000000       0.00000000       0.17750365 </v>
  </varray>
  <energy>
   <i name="e_fr_energy">    -10.19239189 </i>
   <i name="e_wo_entrp">    -10.19238912 </i>
   <i name="e_0_energy">     -0.00000555 </i>
  </energy>
  <time name="totalsc">   22.74   25.82</time>
 </calculation>
 <calculation>
  <scstep>
   <time name="dav">    0.91    0.91</time>
   <time name="total">    1.04    1.07</time>
   <energy>
    <i name="alphaZ">      7.14233205 </i>
    <i name="ewald">    691.35159761 </i>
    <i name="hartreedc">  -1395.28164347 </i>
    <i name="XCdc">    -13.68826101 </i>
    <i name="pawpsdc">   1144.31969807 </i>
    <i name="pawaedc">  -1090.13454540 </i>
    <i name="eentropy">     -0.00000500 </i>
    <i name="bandstr">   -127.95721649 </i>
    <i name="atom">    774.05553253 </i>
    <i name="e_fr_energy">    -10.19251111 </i>
    <i name="e_wo_entrp">    -10.19250611 </i>
    <i name="e_0_energy">    -10.19250861 </i>
   </energy>
  </scstep>
  <scstep>
   <time name="dav">    1.05    1.05</time>
   <time name="total">    1.17    1.24</time>
   <energy>
    <i name="e_fr_energy">    -10.19251979 </i>
    <i name="e_wo_entrp">    -10.19251469 </i>
    <i name="e_0_energy">    -10.19251724 </i>
   </energy>
  </scstep>
  <scstep>
   <time name="dav">    1.04    1.04</time>
   <time name="total">    1.15    1.26</time>
   <energy>
    <i name="e_fr_energy">    -10.19251948 </i>
    <i name="e_wo_entrp">    -10.19251435 </i>
    <i name="e_0_energy">    -10.19251691 </i>
   </energy>
  </scstep>
  <scstep>
   <time name="dav">    0.73    0.73</time>
   <time name="total">    0.85    1.00</time>
   <energy>
    <i name="e_fr_energy">    -10.19251931 </i>
    <i name="e_wo_entrp">    -10.19251420 </i>
    <i name="e_0_energy">    -10.19251676 </i>
   </energy>
  </scstep>
  <scstep>
   <time name="dav">    0.70    0.70</time>
   <time name="total">    0.73    0.86</time>
   <energy>
    <i name="alphaZ">      7.14233205 </i>
    <i name="ewald">    691.35159761 </i>
    <i name="hartreedc">  -1395.26775047 </i>
    <i name="XCdc">    -13.68829869 </i>
    <i name="pawpsdc">   1142.90039442 </i>
    <i name="pawaedc">  -1088.71439741 </i>
    <i name="eentropy">     -0.00000511 </i>
    <i name="bandstr">   -127.97192412 </i>
    <i name="atom">    774.05553253 </i>
    <i name="e_fr_energy">    -10.19251919 </i>
    <i name="e_wo_entrp">    -10.19251408 </i>
    <i name="e_0_energy">    -10.19251664 </i>
   </energy>
  </scstep>
  <structure>
   <crystal>
    <varray name="basis" >
     <v>       3.91755646       0.00000000       0.00000000 </v>
     <v>       0.00000000       3.91755646       0.00000000 </v>
     <v>       0.00000000       0.00000000      15.30625523 </v>
    </varray>
    <i name="volume">    234.90890477 </i>
    <varray name="rec_basis" >
     <v>       0.25526116       0.00000000       0.00000000 </v>
     <v>       0.00000000       0.25526116       0.00000000 </v>
     <v>       0.00000000       0.00000000       0.06533277 </v>
    </varray>
   </crystal>
   <varray name="positions" >
    <v>       0.00000000       0.25000000       0.56651286 </v>
    <v>       0.50000000       0.75000000       0.43349713 </v>
    <v>      -0.00000000       0.25000000       0.41176898 </v>
    <v>       0.50000000       0.75000000       0.58824103 </v>
   </varray>
  </structure>
  <varray name="forces" >
   <v>      -0.00000000       0.00000000       0.02413393 </v>
   <v>       0.00000000      -0.00000000      -0.02413393 </v>
   <v>       0.00000000      -0.00000000      -0.01086046 </v>
   <v>       0.00000000      -0.00000000       0.01086046 </v>
  </varray>
  <varray name="stress" >
   <v>      -0.44807631       0.00000000       0.00000000 </v>
   <v>       0.00000000      -0.44807631      -0.00000000 </v>
   <v>       0.00000000      -0.00000000      -0.14178080 </v>
  </varray>
  <energy>
   <i name="e_fr_energy">    -10.19251919 </i>
   <i name="e_wo_entrp">    -10.19251664 </i>
   <i name="e_0_energy">     -0.00000511 </i>
  </energy>
  <time name="totalsc">    6.19    7.27</time>
 </calculation>
 <calculation>
  <scstep>
   <time name="dav">    0.81    0.81</time>
   <time name="total">    0.93    0.99</time>
   <energy>
    <i name="alphaZ">      7.14233205 </i>
    <i name="ewald">    689.52027800 </i>
    <i name="hartreedc">  -1393.52268342 </i>
    <i name="XCdc">    -13.70009113 </i>
    <i name="pawpsdc">   1142.90607397 </i>
    <i name="pawaedc">  -1088.72009806 </i>
    <i name="eentropy">     -0.00000417 </i>
    <i name="bandstr">   -127.87392548 </i>
    <i name="atom">    774.05553253 </i>
    <i name="e_fr_energy">    -10.19258572 </i>
    <i name="e_wo_entrp">    -10.19258155 </i>
    <i name="e_0_energy">    -10.19258363 </i>
   </energy>
  </scstep>
  <scstep>
   <time name="dav">    1.38    1.38</time>
   <time name="total">    1.51    1.75</time>
   <energy>
    <i name="e_fr_energy">    -10.19261814 </i>
    <i name="e_wo_entrp">    -10.19261380 </i>
    <i name="e_0_energy">    -10.19261597 </i>
   </energy>
  </scstep>
  <scstep>
   <time name="dav">    1.52    1.52</time>
   <time name="total">    1.65    1.75</time>
   <energy>
    <i name="e_fr_energy">    -10.19261727 </i>
    <i name="e_wo_entrp">    -10.19261289 </i>
    <i name="e_0_energy">    -10.19261508 </i>
   </energy>
  </scstep>
  <scstep>
   <time name="dav">    0.81    0.81</time>
   <time name="total">    0.92    1.06</time>
   <energy>
    <i name="e_fr_energy">    -10.19261699 </i>
    <i name="e_wo_entrp">    -10.19261262 </i>
    <i name="e_0_energy">    -10.19261480 </i>
   </energy>
  </scstep>
  <scstep>
   <time name="dav">    0.72    0.73</time>
   <time name="total">    0.75    0.94</time>
   <energy>
    <i name="alphaZ">      7.14233205 </i>
    <i name="ewald">    689.52027800 </i>
    <i name="hartreedc">  -1393.49606290 </i>
    <i name="XCdc">    -13.70011495 </i>
    <i name="pawpsdc">   1140.24181614 </i>
    <i name="pawaedc">  -1086.05424774 </i>
    <i name="eentropy">     -0.00000435 </i>
    <i name="bandstr">   -127.90214554 </i>
    <i name="atom">    774.05553253 </i>
    <i name="e_fr_energy">    -10.19261676 </i>
    <i name="e_wo_entrp">    -10.19261241 </i>
    <i name="e_0_energy">    -10.19261458 </i>
   </energy>
  </scstep>
  <structure>
   <crystal>
    <varray name="basis" >
     <v>       3.91755646       0.00000000       0.00000000 </v>
     <v>       0.00000000       3.91755646       0.00000000 </v>
     <v>       0.00000000       0.00000000      15.30625523 </v>
    </varray>
    <i name="volume">    234.90890477 </i>
    <varray name="rec_basis" >
     <v>       0.25526116       0.00000000       0.00000000 </v>
     <v>       0.00000000       0.25526116       0.00000000 </v>
     <v>       0.00000000       0.00000000       0.06533277 </v>
    </varray>
   </crystal>
   <varray name="positions" >
    <v>       0.00000000       0.25000000       0.56671811 </v>
    <v>       0.50000000       0.75000000       0.43329188 </v>
    <v>      -0.00000000       0.25000000       0.41164317 </v>
    <v>       0.50000000       0.75000000       0.58836684 </v>
   </varray>
  </structure>
  <varray name="forces" >
   <v>      -0.00000000      -0.00000000       0.00550759 </v>
   <v>       0.00000000       0.00000000      -0.00550759 </v>
   <v>      -0.00000000       0.00000000       0.00778327 </v>
   <v>      -0.00000000      -0.00000000      -0.00778327 </v>
  </varray>
  <varray name="stress" >
   <v>      -0.45810717       0.00000000       0.00000000 </v>
   <v>       0.00000000      -0.45810717      -0.00000000 </v>
   <v>       0.00000000       0.00000000      -0.74092255 </v>
  </varray>
  <energy>
   <i name="e_fr_energy">    -10.19261676 </i>
   <i name="e_wo_entrp">    -10.19261458 </i>
   <i name="e_0_energy">     -0.00000435 </i>
  </energy>
  <time name="totalsc">    6.77    8.25</time>
  <eigenvalues>
   <array>
    <dimension dim="1">band</dimension>
    <dimension dim="2">kpoint</dimension>
    <dimension dim="3">spin</dimension>
    <field>eigene</field>
    <field>occ</field>
    <set>
     <set comment="spin 1">
      <set comment="kpoint 1">
       <r>  -15.4261    1.0000 </r>
       <r>  -14.1574    1.0000 </r>
       <r>   -6.8645    1.0000 </r>
       <r>   -6.3674    1.0000 </r>
       <r>   -4.6268    1.0000 </r>
       <r>   -4.3829    1.0000 </r>
       <r>   -3.3483    1.0000 </r>
       <r>   -2.9734    1.0000 </r>
       <r>   -2.1935    1.0000 </r>
       <r>   -2.1625    1.0000 </r>
       <r>    1.3111    0.0000 </r>
       <r>    2.4542    0.0000 </r>
       <r>    2.7286    0.0000 </r>
       <r>    2.8878    0.0000 </r>
       <r>    3.2526    0.0000 </r>
       <r>    3.5580    0.0000 </r>
      </set>
      <set comment="kpoint 2">
       <r>  -15.3465    1.0000 </r>
       <r>  -14.1354    1.0000 </r>
       <r>   -6.8944    1.0000 </r>
       <r>   -6.7884    1.0000 </r>
       <r>   -4.6218    1.0000 </r>
       <r>   -4.0119    1.0000 </r>
       <r>   -3.9924    1.0000 </r>
       <r>   -2.9344    1.0000 </r>
       <r>   -2.1418    1.0000 </r>
       <r>   -1.4458    1.0000 </r>
       <r>    1.2773    0.0000 </r>
       <r>    1.8513    0.0000 </r>
       <r>    2.5188    0.0000 </r>
       <r>    3.0089    0.0000 </r>
       <r>    3.1402    0.0000 </r>
       <r>    3.5505    0.0000 </r>
      </set>
      <set comment="kpoint 3">
       <r>  -15.1939    1.0000 </r>
       <r>  -14.1068    1.0000 </r>
       <r>   -7.3399    1.0000 </r>
       <r>   -7.0171    1.0000 </r>
       <r>   -4.5446    1.0000 </r>
       <r>   -4.4454    1.0000 </r>
       <r>   -3.7188    1.0000 </r>
       <r>   -2.7813    1.0000 </r>
       <r>   -2.0137    1.0000 </r>
       <r>   -0.7581    1.0000 </r>
       <r>    1.1309    0.0000 </r>
       <r>    1.2529    0.0000 </r>
       <r>    1.9904    0.0000 </r>
       <r>    2.5158    0.0000 </r>
       <r>    3.1837    0.0000 </r>
       <r>    3.2909    0.0000 </r>
      </set>
      <set comment="kpoint 4">
       <r>  -14.9825    1.0000 </r>
       <r>  -14.1009    1.0000 </r>
       <r>   -7.8203    1.0000 </r>
       <r>   -7.3011    1.0000 </r>
       <r>   -4.7885    1.0000 </r>
       <r>   -4.1807    1.0000 </r>
       <r>   -3.6020    1.0000 </r>
       <r>   -2.6087    1.0000 </r>
       <r>   -1.7636    1.0000 </r>
       <r>   -0.2321    0.9999 </r>
       <r>    0.5516    0.0000 </r>
       <r>    1.3076    0.0000 </r>
       <r>    1.3389    0.0000 </r>
       <r>    1.8057    0.0000 </r>
       <r>    2.8875    0.0000 </r>
       <r>    3.2159    0.0000 </r>
      </set>
      <set comment="kpoint 5">
       <r>  -14.7365    1.0000 </r>
       <r>  -14.1526    1.0000 </r>
       <r>   -8.1196    1.0000 </r>
       <r>   -7.6854    1.0000 </r>
       <r>   -4.7340    1.0000 </r>
       <r>   -4.0357    1.0000 </r>
       <r>   -3.4891    1.0000 </r>
       <r>   -2.5464    1.0000 </r>
       <r>   -1.3814    1.0000 </r>
       <r>   -0.2708    1.0000 </r>
       <r>    0.6074    0.0000 </r>
       <r>    0.8000    0.0000 </r>
       <r>    1.0800    0.0000 </r>
       <r>    1.5341    0.0000 </r>
       <r>    2.3972    0.0000 </r>
       <r>    2.8654    0.0000 </r>
      </set>
      <set comment="kpoint 6">
       <r>  -14.4902    1.0000 </r>
       <r>  -14.2846    1.0000 </r>
       <r>   -8.1845    1.0000 </r>
       <r>   -8.0192    1.0000 </r>
       <r>   -4.5046    1.0000 </r>
       <r>   -4.2213    1.0000 </r>
       <r>   -3.1266    1.0000 </r>
       <r>   -2.7401    1.0000 </r>
       <r>   -0.9171    1.0000 </r>
       <r>   -0.5049    1.0000 </r>
       <r>    0.3091    0.0001 </r>
       <r>    0.5228    0.0000 </r>
       <r>    1.2524    0.0000 </r>
       <r>    1.7431    0.0000 </r>
       <r>    1.9818    0.0000 </r>
       <r>    2.3719    0.0000 </r>
      </set>
      <set comment="kpoint 7">
       <r>  -15.2682    1.0000 </r>
       <r>  -14.1125    1.0000 </r>
       <r>   -6.9721    1.0000 </r>
       <r>   -6.9183    1.0000 </r>
       <r>   -5.0165    1.0000 </r>
       <r>   -4.1349    1.0000 </r>
       <r>   -3.5545    1.0000 </r>
       <r>   -3.3201    1.0000 </r>
       <r>   -1.9837    1.0000 </r>
       <r>   -0.8465    1.0000 </r>
       <r>    1.0880    0.0000 </r>
       <r>    1.2800    0.0000 </r>
       <r>    2.5245    0.0000 </r>
       <r>    2.8574    0.0000 </r>
       <r>    3.0834    0.0000 </r>
       <r>    3.6684    0.0000 </r>
      </set>
      <set comment="kpoint 8">
       <r>  -15.1185    1.0000 </r>
       <r>  -14.0819    1.0000 </r>
       <r>   -7.3369    1.0000 </r>
       <r>   -7.0213    1.0000 </r>
       <r>   -5.1145    1.0000 </r>
       <r>   -4.4993    1.0000 </r>
       <r>   -3.3599    1.0000 </r>
       <r>   -3.3515    1.0000 </r>
       <r>   -1.6385    1.0000 </r>
       <r>   -0.5060    1.0000 </r>
       <r>    0.6377    0.0000 </r>
       <r>    1.2855    0.0000 </r>
       <r>    1.8090    0.0000 </r>
       <r>    2.7115    0.0000 </r>
       <r>    3.2424    0.0000 </r>
       <r>    3.5781    0.0000 </r>
      </set>
      <set comment="kpoint 9">
       <r>  -14.9118    1.0000 </r>
       <r>  -14.0719    1.0000 </r>
       <r>   -7.7373    1.0000 </r>
       <r>   -7.2685    1.0000 </r>
       <r>   -4.9572    1.0000 </r>
       <r>   -4.7333    1.0000 </r>
       <r>   -3.3985    1.0000 </r>
       <r>   -3.2356    1.0000 </r>
       <r>   -1.1858    1.0000 </r>
       <r>   -0.8920    1.0000 </r>
       <r>    0.9664    0.0000 </r>
       <r>    0.9783    0.0000 </r>
       <r>    1.4807    0.0000 </r>
       <r>    2.2539    0.0000 </r>
       <r>    3.2534    0.0000 </r>
       <r>    3.3667    0.0000 </r>
      </set>
      <set comment="kpoint 10">
       <r>  -14.6725    1.0000 </r>
       <r>  -14.1167    1.0000 </r>
       <r>   -8.0119    1.0000 </r>
       <r>   -7.6165    1.0000 </r>
       <r>   -4.7118    1.0000 </r>
       <r>   -4.6704    1.0000 </r>
       <r>   -3.5719    1.0000 </r>
       <r>   -3.2077    1.0000 </r>
       <r>   -1.2480    1.0000 </r>
       <r>   -0.8070    1.0000 </r>
       <r>    0.4481    0.0000 </r>
       <r>    1.3742    0.0000 </r>
       <r>    1.6695    0.0000 </r>
       <r>    1.7976    0.0000 </r>
       <r>    2.9318    0.0000 </r>
       <r>    3.0565    0.0000 </r>
      </set>
      <set comment="kpoint 11">
       <r>  -14.4350    1.0000 </r>
       <r>  -14.2393    1.0000 </r>
       <r>   -8.0771    1.0000 </r>
       <r>   -7.9255    1.0000 </r>
       <r>   -4.5443    1.0000 </r>
       <r>   -4.4552    1.0000 </r>
       <r>   -3.6558    1.0000 </r>
       <r>   -3.4283    1.0000 </r>
       <r>   -1.1887    1.0000 </r>
       <r>   -0.8724    1.0000 </r>
       <r>    0.4759    0.0000 </r>
       <r>    0.9604    0.0000 </r>
       <r>    2.0072    0.0000 </r>
       <r>    2.1347    0.0000 </r>
       <r>    2.4792    0.0000 </r>
       <r>    2.6470    0.0000 </r>
      </set>
      <set comment="kpoint 12">
       <r>  -14.9747    1.0000 </r>
       <r>  -14.0463    1.0000 </r>
       <r>   -7.4031    1.0000 </r>
       <r>   -7.0724    1.0000 </r>
       <r>   -5.5771    1.0000 </r>
       <r>   -4.5081    1.0000 </r>
       <r>   -3.8323    1.0000 </r>
       <r>   -3.2897    1.0000 </r>
       <r>   -1.0768    1.0000 </r>
       <r>   -1.0595    1.0000 </r>
       <r>    0.9409    0.0000 </r>
       <r>    1.1306    0.0000 </r>
       <r>    1.5146    0.0000 </r>
       <r>    3.1114    0.0000 </r>
       <r>    3.2773    0.0000 </r>
       <r>    3.6018    0.0000 </r>
      </set>
      <set comment="kpoint 13">
       <r>  -14.7779    1.0000 </r>
       <r>  -14.0269    1.0000 </r>
       <r>   -7.5973    1.0000 </r>
       <r>   -7.2334    1.0000 </r>
       <r>   -5.6677    1.0000 </r>
       <r>   -4.6640    1.0000 </r>
       <r>   -3.9179    1.0000 </r>
       <r>   -3.4199    1.0000 </r>
       <r>   -1.7452    1.0000 </r>
       <r>   -0.6878    1.0000 </r>
       <r>    0.4896    0.0000 </r>
       <r>    1.6735    0.0000 </r>
       <r>    1.8075    0.0000 </r>
       <r>    2.9655    0.0000 </r>
       <r>    3.2956    0.0000 </r>
       <r>    3.5109    0.0000 </r>
      </set>
      <set comment="kpoint 14">
       <r>  -14.5528    1.0000 </r>
       <r>  -14.0566    1.0000 </r>
       <r>   -7.8015    1.0000 </r>
       <r>   -7.4962    1.0000 </r>
       <r>   -5.4526    1.0000 </r>
       <r>   -4.7278    1.0000 </r>
       <r>   -3.9619    1.0000 </r>
       <r>   -3.6611    1.0000 </r>
       <r>   -2.0935    1.0000 </r>
       <r>   -1.0054    1.0000 </r>
       <r>    0.7491    0.0000 </r>
       <r>    1.9332    0.0000 </r>
       <r>    2.2766    0.0000 </r>
       <r>    2.6376    0.0000 </r>
       <r>    3.0925    0.0000 </r>
       <r>    3.4065    0.0000 </r>
      </set>
      <set comment="kpoint 15">
       <r>  -14.3339    1.0000 </r>
       <r>  -14.1594    1.0000 </r>
       <r>   -7.8656    1.0000 </r>
       <r>   -7.7465    1.0000 </r>
       <r>   -5.0916    1.0000 </r>
       <r>   -4.7854    1.0000 </r>
       <r>   -4.0685    1.0000 </r>
       <r>   -3.9301    1.0000 </r>
       <r>   -1.9735    1.0000 </r>
       <r>   -1.5456    1.0000 </r>
       <r>    1.3027    0.0000 </r>
       <r>    1.8813    0.0000 </r>
       <r>    2.2829    0.0000 </r>
       <r>    2.6783    0.0000 </r>
       <r>    2.9698    0.0000 </r>
       <r>    3.2471    0.0000 </r>
      </set>
      <set comment="kpoint 16">
       <r>  -14.5970    1.0000 </r>
       <r>  -13.9908    1.0000 </r>
       <r>   -7.4837    1.0000 </r>
       <r>   -7.2534    1.0000 </r>
       <r>   -6.1101    1.0000 </r>
       <r>   -4.7229    1.0000 </r>
       <r>   -4.3302    1.0000 </r>
       <r>   -3.5755    1.0000 </r>
       <r>   -2.4036    1.0000 </r>
       <r>   -1.0366    1.0000 </r>
       <r>    0.8639    0.0000 </r>
       <r>    1.9853    0.0000 </r>
       <r>    2.5457    0.0000 </r>
       <r>    3.1377    0.0000 </r>
       <r>    3.4262    0.0000 </r>
       <r>    3.4385    0.0000 </r>
      </set>
      <set comment="kpoint 17">
       <r>  -14.3951    1.0000 </r>
       <r>  -13.9952    1.0000 </r>
       <r>   -7.5062    1.0000 </r>
       <r>   -7.3645    1.0000 </r>
       <r>   -6.1180    1.0000 </r>
       <r>   -4.9631    1.0000 </r>
       <r>   -4.4654    1.0000 </r>
       <r>   -3.8365    1.0000 </r>
       <r>   -2.6714    1.0000 </r>
       <r>   -1.6264    1.0000 </r>
       <r>    1.4592    0.0000 </r>
       <r>    2.3815    0.0000 </r>
       <r>    2.8213    0.0000 </r>
       <r>    3.1072    0.0000 </r>
       <r>    3.3598    0.0000 </r>
       <r>    3.4743    0.0000 </r>
      </set>
      <set comment="kpoint 18">
       <r>  -14.2062    1.0000 </r>
       <r>  -14.0657    1.0000 </r>
       <r>   -7.5585    1.0000 </r>
       <r>   -7.5029    1.0000 </r>
       <r>   -5.7906    1.0000 </r>
       <r>   -5.3431    1.0000 </r>
       <r>   -4.4021    1.0000 </r>
       <r>   -4.1467    1.0000 </r>
       <r>   -2.5300    1.0000 </r>
       <r>   -2.1461    1.0000 </r>
       <r>    1.9894    0.0000 </r>
       <r>    2.4556    0.0000 </r>
       <r>    2.8019    0.0000 </r>
       <r>    3.1431    0.0000 </r>
       <r>    3.3802    0.0000 </r>
       <r>    3.3997    0.0000 </r>
      </set>
      <set comment="kpoint 19">
       <r>  -14.2263    1.0000 </r>
       <r>  -13.9630    1.0000 </r>
       <r>   -7.2759    1.0000 </r>
       <r>   -7.2095    1.0000 </r>
       <r>   -6.5067    1.0000 </r>
       <r>   -5.3990    1.0000 </r>
       <r>   -4.7060    1.0000 </r>
       <r>   -4.1274    1.0000 </r>
       <r>   -2.8678    1.0000 </r>
       <r>   -2.1378    1.0000 </r>
       <r>    1.9939    0.0000 </r>
       <r>    2.8634    0.0000 </r>
       <r>    2.9654    0.0000 </r>
       <r>    3.2220    0.0000 </r>
       <r>    3.3237    0.0000 </r>
       <r>    3.7455    0.0000 </r>
      </set>
      <set comment="kpoint 20">
       <r>  -14.0802    1.0000 </r>
       <r>  -13.9877    1.0000 </r>
       <r>   -7.2348    1.0000 </r>
       <r>   -7.1731    1.0000 </r>
       <r>   -6.3490    1.0000 </r>
       <r>   -5.8824    1.0000 </r>
       <r>   -4.7121    1.0000 </r>
       <r>   -4.4686    1.0000 </r>
       <r>   -2.7661    1.0000 </r>
       <r>   -2.5085    1.0000 </r>
       <r>    2.3943    0.0000 </r>
       <r>    2.6937    0.0000 </r>
       <r>    3.1826    0.0000 </r>
       <r>    3.2740    0.0000 </r>
       <r>    3.4764    0.0000 </r>
       <r>    3.7426    0.0000 </r>
      </set>
      <set comment="kpoint 21">
       <r>  -13.9884    1.0000 </r>
       <r>  -13.9559    1.0000 </r>
       <r>   -6.9879    1.0000 </r>
       <r>   -6.7571    1.0000 </r>
       <r>   -6.7152    1.0000 </r>
       <r>   -6.3179    1.0000 </r>
       <r>   -4.9049    1.0000 </r>
       <r>   -4.7929    1.0000 </r>
       <r>   -2.7797    1.0000 </r>
       <r>   -2.6903    1.0000 </r>
       <r>    2.6629    0.0000 </r>
       <r>    2.7666    0.0000 </r>
       <r>    3.0929    0.0000 </r>
       <r>    3.1421    0.0000 </r>
       <r>    3.8435    0.0000 </r>
       <r>    3.9314    0.0000 </r>
      </set>
     </set>
    </set>
   </array>
  </eigenvalues>
  <separator name="orbital magnetization" >
   <v name="MAGDIPOLOUT">      0.00000000      0.00000000      0.00000000</v>
  </separator>
  <dos>
   <i name="efermi">      0.03924530 </i>
   <total>
    <array>
     <dimension dim="1">gridpoints</dimension>
     <dimension dim="2">spin</dimension>
     <field>energy</field>
     <field>total</field>
     <field>integrated</field>
     <set>
      <set comment="spin 1">
       <r>   -16.4261     0.0000     0.0000 </r>
       <r>   -16.4190     0.0000     0.0000 </r>
       <r>   -16.4119     0.0000     0.0000 </r>
       <r>   -16.4048     0.0000     0.0000 </r>
       <r>   -16.3976     0.0000     0.0000 </r>
       <r>   -16.3905     0.0000     0.0000 </r>
       <r>   -16.3834     0.0000     0.0000 </r>
       <r>   -16.3763     0.0000     0.0000 </r>
       <r>   -16.3692     0.0000     0.0000 </r>
       <r>   -16.3620     0.0000     0.0000 </r>
       <r>   -16.3549     0.0000     0.0000 </r>
       <r>   -16.3478     0.0000     0.0000 </r>
       <r>   -16.3407     0.0000     0.0000 </r>
       <r>   -16.3336     0.0000     0.0000 </r>
       <r>   -16.3264     0.0000     0.0000 </r>
       <r>   -16.3193     0.0000     0.0000 </r>
       <r>   -16.3122     0.0000     0.0000 </r>
       <r>   -16.3051     0.0000     0.0000 </r>
       <r>   -16.2980     0.0000     0.0000 </r>
       <r>   -16.2908     0.0000     0.0000 </r>
       <r>   -16.2837     0.0000     0.0000 </r>
       <r>   -16.2766     0.0000     0.0000 </r>
       <r>   -16.2695     0.0000     0.0000 </r>
       <r>   -16.2624     0.0000     0.0000 </r>
       <r>   -16.2552     0.0000     0.0000 </r>
       <r>   -16.2481     0.0000     0.0000 </r>
       <r>   -16.2410     0.0000     0.0000 </r>
       <r>   -16.2339     0.0000     0.0000 </r>
       <r>   -16.2268     0.0000     0.0000 </r>
       <r>   -16.2197     0.0000     0.0000 </r>
       <r>   -16.2125     0.0000     0.0000 </r>
       <r>   -16.2054     0.0000     0.0000 </r>
       <r>   -16.1983     0.0000     0.0000 </r>
       <r>   -16.1912     0.0000     0.0000 </r>
       <r>   -16.1841     0.0000     0.0000 </r>
       <r>   -16.1769     0.0000     0.0000 </r>
       <r>   -16.1698     0.0000     0.0000 </r>
       <r>   -16.1627     0.0000     0.0000 </r>
       <r>   -16.1556     0.0000     0.0000 </r>
       <r>   -16.1485     0.0000     0.0000 </r>
       <r>   -16.1413     0.0000     0.0000 </r>
       <r>   -16.1342     0.0000     0.0000 </r>
       <r>   -16.1271     0.0000     0.0000 </r>
       <r>   -16.1200     0.0000     0.0000 </r>
       <r>   -16.1129     0.0000     0.0000 </r>
       <r>   -16.1057     0.0000     0.0000 </r>
       <r>   -16.0986     0.0000     0.0000 </r>
       <r>   -16.0915     0.0000     0.0000 </r>
       <r>   -16.0844     0.0000     0.0000 </r>
       <r>   -16.0773     0.0000     0.0000 </r>
       <r>   -16.0702     0.0000     0.0000 </r>
       <r>   -16.0630     0.0000     0.0000 </r>
       <r>   -16.0559     0.0000     0.0000 </r>
       <r>   -16.0488     0.0000     0.0000 </r>
       <r>   -16.0417     0.0000     0.0000 </r>
       <r>   -16.0346     0.0000     0.0000 </r>
       <r>   -16.0274     0.0000     0.0000 </r>
       <r>   -16.0203     0.0000     0.0000 </r>
       <r>   -16.0132     0.0000     0.0000 </r>
       <r>   -16.0061     0.0000     0.0000 </r>
       <r>   -15.9990     0.0000     0.0000 </r>
       <r>   -15.9918     0.0000     0.0000 </r>
       <r>   -15.9847     0.0000     0.0000 </r>
       <r>   -15.9776     0.0000     0.0000 </r>
       <r>   -15.9705     0.0000     0.0000 </r>
       <r>   -15.9634     0.0000     0.0000 </r>
       <r>   -15.9562     0.0000     0.0000 </r>
       <r>   -15.9491     0.0000     0.0000 </r>
       <r>   -15.9420     0.0000     0.0000 </r>
       <r>   -15.9349     0.0000     0.0000 </r>
       <r>   -15.9278     0.0000     0.0000 </r>
       <r>   -15.9206     0.0000     0.0000 </r>
       <r>   -15.9135     0.0000     0.0000 </r>
       <r>   -15.9064     0.0000     0.0000 </r>
       <r>   -15.8993     0.0000     0.0000 </r>
       <r>   -15.8922     0.0000     0.0000 </r>
       <r>   -15.8851     0.0000     0.0000 </r>
       <r>   -15.8779     0.0000     0.0000 </r>
       <r>   -15.8708     0.0000     0.0000 </r>
       <r>   -15.8637     0.0000     0.0000 </r>
       <r>   -15.8566     0.0000     0.0000 </r>
       <r>   -15.8495     0.0000     0.0000 </r>
       <r>   -15.8423     0.0000     0.0000 </r>
       <r>   -15.8352     0.0000     0.0000 </r>
       <r>   -15.8281     0.0000     0.0000 </r>
       <r>   -15.8210     0.0000     0.0000 </r>
       <r>   -15.8139     0.0000     0.0000 </r>
       <r>   -15.8067     0.0000     0.0000 </r>
       <r>   -15.7996     0.0000     0.0000 </r>
       <r>   -15.7925     0.0000     0.0000 </r>
       <r>   -15.7854     0.0000     0.0000 </r>
       <r>   -15.7783     0.0000     0.0000 </r>
       <r>   -15.7711     0.0000     0.0000 </r>
       <r>   -15.7640     0.0000     0.0000 </r>
       <r>   -15.7569     0.0000     0.0000 </r>
       <r>   -15.7498     0.0000     0.0000 </r>
       <r>   -15.7427     0.0000     0.0000 </r>
       <r>   -15.7355     0.0000     0.0000 </r>
       <r>   -15.7284     0.0000     0.0000 </r>
       <r>   -15.7213     0.0000     0.0000 </r>
       <r>   -15.7142     0.0001     0.0000 </r>
       <r>   -15.7071     0.0001     0.0000 </r>
       <r>   -15.7000     0.0001     0.0000 </r>
       <r>   -15.6928     0.0002     0.0000 </r>
       <r>   -15.6857     0.0003     0.0000 </r>
       <r>   -15.6786     0.0005     0.0000 </r>
       <r>   -15.6715     0.0007     0.0000 </r>
       <r>   -15.6644     0.0009     0.0000 </r>
       <r>   -15.6572     0.0013     0.0000 </r>
       <r>   -15.6501     0.0018     0.0000 </r>
       <r>   -15.6430     0.0025     0.0001 </r>
       <r>   -15.6359     0.0034     0.0001 </r>
       <r>   -15.6288     0.0047     0.0001 </r>
       <r>   -15.6216     0.0062     0.0002 </r>
       <r>   -15.6145     0.0083     0.0002 </r>
       <r>   -15.6074     0.0109     0.0003 </r>
       <r>   -15.6003     0.0142     0.0004 </r>
       <r>   -15.5932     0.0183     0.0005 </r>
       <r>   -15.5860     0.0234     0.0007 </r>
       <r>   -15.5789     0.0296     0.0009 </r>
       <r>   -15.5718     0.0372     0.0012 </r>
       <r>   -15.5647     0.0463     0.0015 </r>
       <r>   -15.5576     0.0570     0.0019 </r>
       <r>   -15.5505     0.0697     0.0024 </r>
       <r>   -15.5433     0.0844     0.0030 </r>
       <r>   -15.5362     0.1014     0.0037 </r>
       <r>   -15.5291     0.1207     0.0046 </r>
       <r>   -15.5220     0.1426     0.0056 </r>
       <r>   -15.5149     0.1670     0.0068 </r>
       <r>   -15.5077     0.1942     0.0082 </r>
       <r>   -15.5006     0.2239     0.0098 </r>
       <r>   -15.4935     0.2563     0.0116 </r>
       <r>   -15.4864     0.2911     0.0137 </r>
       <r>   -15.4793     0.3283     0.0160 </r>
       <r>   -15.4721     0.3677     0.0186 </r>
       <r>   -15.4650     0.4090     0.0215 </r>
       <r>   -15.4579     0.4518     0.0247 </r>
       <r>   -15.4508     0.4959     0.0283 </r>
       <r>   -15.4437     0.5408     0.0321 </r>
       <r>   -15.4365     0.5861     0.0363 </r>
       <r>   -15.4294     0.6315     0.0408 </r>
       <r>   -15.4223     0.6763     0.0456 </r>
       <r>   -15.4152     0.7202     0.0507 </r>
       <r>   -15.4081     0.7627     0.0562 </r>
       <r>   -15.4009     0.8033     0.0619 </r>
       <r>   -15.3938     0.8416     0.0679 </r>
       <r>   -15.3867     0.8774     0.0741 </r>
       <r>   -15.3796     0.9102     0.0806 </r>
       <r>   -15.3725     0.9398     0.0873 </r>
       <r>   -15.3654     0.9662     0.0942 </r>
       <r>   -15.3582     0.9891     0.1012 </r>
       <r>   -15.3511     1.0088     0.1084 </r>
       <r>   -15.3440     1.0252     0.1157 </r>
       <r>   -15.3369     1.0387     0.1231 </r>
       <r>   -15.3298     1.0495     0.1306 </r>
       <r>   -15.3226     1.0582     0.1381 </r>
       <r>   -15.3155     1.0651     0.1457 </r>
       <r>   -15.3084     1.0707     0.1533 </r>
       <r>   -15.3013     1.0756     0.1610 </r>
       <r>   -15.2942     1.0802     0.1686 </r>
       <r>   -15.2870     1.0852     0.1764 </r>
       <r>   -15.2799     1.0908     0.1841 </r>
       <r>   -15.2728     1.0974     0.1920 </r>
       <r>   -15.2657     1.1053     0.1998 </r>
       <r>   -15.2586     1.1146     0.2078 </r>
       <r>   -15.2514     1.1253     0.2158 </r>
       <r>   -15.2443     1.1373     0.2239 </r>
       <r>   -15.2372     1.1504     0.2321 </r>
       <r>   -15.2301     1.1643     0.2403 </r>
       <r>   -15.2230     1.1785     0.2487 </r>
       <r>   -15.2158     1.1927     0.2572 </r>
       <r>   -15.2087     1.2062     0.2658 </r>
       <r>   -15.2016     1.2185     0.2745 </r>
       <r>   -15.1945     1.2292     0.2832 </r>
       <r>   -15.1874     1.2377     0.2920 </r>
       <r>   -15.1803     1.2437     0.3009 </r>
       <r>   -15.1731     1.2467     0.3098 </r>
       <r>   -15.1660     1.2466     0.3187 </r>
       <r>   -15.1589     1.2433     0.3275 </r>
       <r>   -15.1518     1.2368     0.3363 </r>
       <r>   -15.1447     1.2273     0.3450 </r>
       <r>   -15.1375     1.2152     0.3537 </r>
       <r>   -15.1304     1.2010     0.3622 </r>
       <r>   -15.1233     1.1853     0.3707 </r>
       <r>   -15.1162     1.1689     0.3790 </r>
       <r>   -15.1091     1.1526     0.3872 </r>
       <r>   -15.1019     1.1373     0.3953 </r>
       <r>   -15.0948     1.1240     0.4033 </r>
       <r>   -15.0877     1.1136     0.4112 </r>
       <r>   -15.0806     1.1068     0.4191 </r>
       <r>   -15.0735     1.1045     0.4270 </r>
       <r>   -15.0663     1.1072     0.4349 </r>
       <r>   -15.0592     1.1151     0.4428 </r>
       <r>   -15.0521     1.1286     0.4508 </r>
       <r>   -15.0450     1.1474     0.4590 </r>
       <r>   -15.0379     1.1712     0.4673 </r>
       <r>   -15.0308     1.1993     0.4759 </r>
       <r>   -15.0236     1.2309     0.4846 </r>
       <r>   -15.0165     1.2651     0.4937 </r>
       <r>   -15.0094     1.3005     0.5029 </r>
       <r>   -15.0023     1.3358     0.5124 </r>
       <r>   -14.9952     1.3698     0.5222 </r>
       <r>   -14.9880     1.4012     0.5321 </r>
       <r>   -14.9809     1.4286     0.5423 </r>
       <r>   -14.9738     1.4510     0.5526 </r>
       <r>   -14.9667     1.4675     0.5631 </r>
       <r>   -14.9596     1.4775     0.5736 </r>
       <r>   -14.9524     1.4806     0.5842 </r>
       <r>   -14.9453     1.4766     0.5947 </r>
       <r>   -14.9382     1.4659     0.6051 </r>
       <r>   -14.9311     1.4488     0.6154 </r>
       <r>   -14.9240     1.4263     0.6256 </r>
       <r>   -14.9168     1.3992     0.6355 </r>
       <r>   -14.9097     1.3688     0.6453 </r>
       <r>   -14.9026     1.3366     0.6548 </r>
       <r>   -14.8955     1.3038     0.6641 </r>
       <r>   -14.8884     1.2722     0.6731 </r>
       <r>   -14.8812     1.2430     0.6820 </r>
       <r>   -14.8741     1.2177     0.6907 </r>
       <r>   -14.8670     1.1975     0.6992 </r>
       <r>   -14.8599     1.1835     0.7076 </r>
       <r>   -14.8528     1.1763     0.7160 </r>
       <r>   -14.8457     1.1766     0.7244 </r>
       <r>   -14.8385     1.1845     0.7328 </r>
       <r>   -14.8314     1.1999     0.7413 </r>
       <r>   -14.8243     1.2224     0.7500 </r>
       <r>   -14.8172     1.2513     0.7589 </r>
       <r>   -14.8101     1.2857     0.7681 </r>
       <r>   -14.8029     1.3245     0.7775 </r>
       <r>   -14.7958     1.3664     0.7872 </r>
       <r>   -14.7887     1.4101     0.7973 </r>
       <r>   -14.7816     1.4541     0.8076 </r>
       <r>   -14.7745     1.4970     0.8183 </r>
       <r>   -14.7673     1.5376     0.8292 </r>
       <r>   -14.7602     1.5748     0.8405 </r>
       <r>   -14.7531     1.6075     0.8519 </r>
       <r>   -14.7460     1.6350     0.8635 </r>
       <r>   -14.7389     1.6568     0.8753 </r>
       <r>   -14.7317     1.6725     0.8872 </r>
       <r>   -14.7246     1.6822     0.8992 </r>
       <r>   -14.7175     1.6860     0.9112 </r>
       <r>   -14.7104     1.6843     0.9232 </r>
       <r>   -14.7033     1.6778     0.9352 </r>
       <r>   -14.6961     1.6671     0.9470 </r>
       <r>   -14.6890     1.6530     0.9588 </r>
       <r>   -14.6819     1.6366     0.9704 </r>
       <r>   -14.6748     1.6188     0.9820 </r>
       <r>   -14.6677     1.6005     0.9934 </r>
       <r>   -14.6606     1.5827     1.0046 </r>
       <r>   -14.6534     1.5662     1.0158 </r>
       <r>   -14.6463     1.5518     1.0268 </r>
       <r>   -14.6392     1.5402     1.0378 </r>
       <r>   -14.6321     1.5319     1.0487 </r>
       <r>   -14.6250     1.5272     1.0596 </r>
       <r>   -14.6178     1.5265     1.0704 </r>
       <r>   -14.6107     1.5299     1.0813 </r>
       <r>   -14.6036     1.5373     1.0923 </r>
       <r>   -14.5965     1.5485     1.1033 </r>
       <r>   -14.5894     1.5634     1.1144 </r>
       <r>   -14.5822     1.5816     1.1257 </r>
       <r>   -14.5751     1.6028     1.1371 </r>
       <r>   -14.5680     1.6265     1.1487 </r>
       <r>   -14.5609     1.6523     1.1604 </r>
       <r>   -14.5538     1.6797     1.1724 </r>
       <r>   -14.5466     1.7084     1.1846 </r>
       <r>   -14.5395     1.7381     1.1969 </r>
       <r>   -14.5324     1.7682     1.2095 </r>
       <r>   -14.5253     1.7985     1.2223 </r>
       <r>   -14.5182     1.8288     1.2353 </r>
       <r>   -14.5110     1.8587     1.2486 </r>
       <r>   -14.5039     1.8881     1.2620 </r>
       <r>   -14.4968     1.9167     1.2757 </r>
       <r>   -14.4897     1.9444     1.2895 </r>
       <r>   -14.4826     1.9710     1.3035 </r>
       <r>   -14.4755     1.9962     1.3178 </r>
       <r>   -14.4683     2.0201     1.3321 </r>
       <r>   -14.4612     2.0424     1.3467 </r>
       <r>   -14.4541     2.0630     1.3614 </r>
       <r>   -14.4470     2.0820     1.3762 </r>
       <r>   -14.4399     2.0993     1.3911 </r>
       <r>   -14.4327     2.1149     1.4062 </r>
       <r>   -14.4256     2.1291     1.4213 </r>
       <r>   -14.4185     2.1421     1.4366 </r>
       <r>   -14.4114     2.1542     1.4519 </r>
       <r>   -14.4043     2.1658     1.4673 </r>
       <r>   -14.3971     2.1774     1.4828 </r>
       <r>   -14.3900     2.1895     1.4984 </r>
       <r>   -14.3829     2.2029     1.5141 </r>
       <r>   -14.3758     2.2181     1.5299 </r>
       <r>   -14.3687     2.2360     1.5458 </r>
       <r>   -14.3615     2.2574     1.5619 </r>
       <r>   -14.3544     2.2829     1.5781 </r>
       <r>   -14.3473     2.3133     1.5946 </r>
       <r>   -14.3402     2.3495     1.6113 </r>
       <r>   -14.3331     2.3921     1.6284 </r>
       <r>   -14.3260     2.4419     1.6458 </r>
       <r>   -14.3188     2.4994     1.6636 </r>
       <r>   -14.3117     2.5654     1.6818 </r>
       <r>   -14.3046     2.6405     1.7006 </r>
       <r>   -14.2975     2.7253     1.7200 </r>
       <r>   -14.2904     2.8203     1.7401 </r>
       <r>   -14.2832     2.9262     1.7609 </r>
       <r>   -14.2761     3.0435     1.7826 </r>
       <r>   -14.2690     3.1727     1.8052 </r>
       <r>   -14.2619     3.3145     1.8288 </r>
       <r>   -14.2548     3.4692     1.8535 </r>
       <r>   -14.2476     3.6373     1.8794 </r>
       <r>   -14.2405     3.8191     1.9066 </r>
       <r>   -14.2334     4.0148     1.9351 </r>
       <r>   -14.2263     4.2243     1.9652 </r>
       <r>   -14.2192     4.4473     1.9969 </r>
       <r>   -14.2120     4.6833     2.0302 </r>
       <r>   -14.2049     4.9314     2.0653 </r>
       <r>   -14.1978     5.1901     2.1023 </r>
       <r>   -14.1907     5.4579     2.1411 </r>
       <r>   -14.1836     5.7325     2.1819 </r>
       <r>   -14.1764     6.0114     2.2247 </r>
       <r>   -14.1693     6.2915     2.2695 </r>
       <r>   -14.1622     6.5696     2.3163 </r>
       <r>   -14.1551     6.8419     2.3650 </r>
       <r>   -14.1480     7.1046     2.4156 </r>
       <r>   -14.1409     7.3536     2.4679 </r>
       <r>   -14.1337     7.5851     2.5219 </r>
       <r>   -14.1266     7.7950     2.5774 </r>
       <r>   -14.1195     7.9798     2.6342 </r>
       <r>   -14.1124     8.1360     2.6922 </r>
       <r>   -14.1053     8.2609     2.7510 </r>
       <r>   -14.0981     8.3521     2.8104 </r>
       <r>   -14.0910     8.4078     2.8703 </r>
       <r>   -14.0839     8.4268     2.9303 </r>
       <r>   -14.0768     8.4087     2.9901 </r>
       <r>   -14.0697     8.3536     3.0496 </r>
       <r>   -14.0625     8.2623     3.1084 </r>
       <r>   -14.0554     8.1359     3.1664 </r>
       <r>   -14.0483     7.9763     3.2231 </r>
       <r>   -14.0412     7.7855     3.2786 </r>
       <r>   -14.0341     7.5660     3.3324 </r>
       <r>   -14.0269     7.3205     3.3846 </r>
       <r>   -14.0198     7.0518     3.4348 </r>
       <r>   -14.0127     6.7628     3.4829 </r>
       <r>   -14.0056     6.4566     3.5289 </r>
       <r>   -13.9985     6.1361     3.5725 </r>
       <r>   -13.9913     5.8045     3.6139 </r>
       <r>   -13.9842     5.4646     3.6528 </r>
       <r>   -13.9771     5.1193     3.6892 </r>
       <r>   -13.9700     4.7717     3.7232 </r>
       <r>   -13.9629     4.4243     3.7547 </r>
       <r>   -13.9558     4.0800     3.7837 </r>
       <r>   -13.9486     3.7414     3.8104 </r>
       <r>   -13.9415     3.4109     3.8347 </r>
       <r>   -13.9344     3.0908     3.8567 </r>
       <r>   -13.9273     2.7832     3.8765 </r>
       <r>   -13.9202     2.4900     3.8942 </r>
       <r>   -13.9130     2.2129     3.9100 </r>
       <r>   -13.9059     1.9530     3.9239 </r>
       <r>   -13.8988     1.7115     3.9360 </r>
       <r>   -13.8917     1.4889     3.9466 </r>
       <r>   -13.8846     1.2856     3.9558 </r>
       <r>   -13.8774     1.1016     3.9636 </r>
       <r>   -13.8703     0.9366     3.9703 </r>
       <r>   -13.8632     0.7900     3.9759 </r>
       <r>   -13.8561     0.6609     3.9806 </r>
       <r>   -13.8490     0.5484     3.9845 </r>
       <r>   -13.8418     0.4513     3.9877 </r>
       <r>   -13.8347     0.3682     3.9904 </r>
       <r>   -13.8276     0.2979     3.9925 </r>
       <r>   -13.8205     0.2389     3.9942 </r>
       <r>   -13.8134     0.1899     3.9955 </r>
       <r>   -13.8063     0.1497     3.9966 </r>
       <r>   -13.7991     0.1169     3.9974 </r>
       <r>   -13.7920     0.0905     3.9981 </r>
       <r>   -13.7849     0.0694     3.9986 </r>
       <r>   -13.7778     0.0528     3.9990 </r>
       <r>   -13.7707     0.0397     3.9992 </r>
       <r>   -13.7635     0.0297     3.9994 </r>
       <r>   -13.7564     0.0219     3.9996 </r>
       <r>   -13.7493     0.0161     3.9997 </r>
       <r>   -13.7422     0.0117     3.9998 </r>
       <r>   -13.7351     0.0084     3.9999 </r>
       <r>   -13.7279     0.0060     3.9999 </r>
       <r>   -13.7208     0.0042     3.9999 </r>
       <r>   -13.7137     0.0030     4.0000 </r>
       <r>   -13.7066     0.0020     4.0000 </r>
       <r>   -13.6995     0.0014     4.0000 </r>
       <r>   -13.6923     0.0010     4.0000 </r>
       <r>   -13.6852     0.0006     4.0000 </r>
       <r>   -13.6781     0.0004     4.0000 </r>
       <r>   -13.6710     0.0003     4.0000 </r>
       <r>   -13.6639     0.0002     4.0000 </r>
       <r>   -13.6567     0.0001     4.0000 </r>
       <r>   -13.6496     0.0001     4.0000 </r>
       <r>   -13.6425     0.0000     4.0000 </r>
       <r>   -13.6354     0.0000     4.0000 </r>
       <r>   -13.6283     0.0000     4.0000 </r>
       <r>   -13.6212     0.0000     4.0000 </r>
       <r>   -13.6140     0.0000     4.0000 </r>
       <r>   -13.6069     0.0000     4.0000 </r>
       <r>   -13.5998     0.0000     4.0000 </r>
       <r>   -13.5927     0.0000     4.0000 </r>
       <r>   -13.5856     0.0000     4.0000 </r>
       <r>   -13.5784     0.0000     4.0000 </r>
       <r>   -13.5713     0.0000     4.0000 </r>
       <r>   -13.5642     0.0000     4.0000 </r>
       <r>   -13.5571     0.0000     4.0000 </r>
       <r>   -13.5500     0.0000     4.0000 </r>
       <r>   -13.5428     0.0000     4.0000 </r>
       <r>   -13.5357     0.0000     4.0000 </r>
       <r>   -13.5286     0.0000     4.0000 </r>
       <r>   -13.5215     0.0000     4.0000 </r>
       <r>   -13.5144     0.0000     4.0000 </r>
       <r>   -13.5072     0.0000     4.0000 </r>
       <r>   -13.5001     0.0000     4.0000 </r>
       <r>   -13.4930     0.0000     4.0000 </r>
       <r>   -13.4859     0.0000     4.0000 </r>
       <r>   -13.4788     0.0000     4.0000 </r>
       <r>   -13.4716     0.0000     4.0000 </r>
       <r>   -13.4645     0.0000     4.0000 </r>
       <r>   -13.4574     0.0000     4.0000 </r>
       <r>   -13.4503     0.0000     4.0000 </r>
       <r>   -13.4432     0.0000     4.0000 </r>
       <r>   -13.4361     0.0000     4.0000 </r>
       <r>   -13.4289     0.0000     4.0000 </r>
       <r>   -13.4218     0.0000     4.0000 </r>
       <r>   -13.4147     0.0000     4.0000 </r>
       <r>   -13.4076     0.0000     4.0000 </r>
       <r>   -13.4005     0.0000     4.0000 </r>
       <r>   -13.3933     0.0000     4.0000 </r>
       <r>   -13.3862     0.0000     4.0000 </r>
       <r>   -13.3791     0.0000     4.0000 </r>
       <r>   -13.3720     0.0000     4.0000 </r>
       <r>   -13.3649     0.0000     4.0000 </r>
       <r>   -13.3577     0.0000     4.0000 </r>
       <r>   -13.3506     0.0000     4.0000 </r>
       <r>   -13.3435     0.0000     4.0000 </r>
       <r>   -13.3364     0.0000     4.0000 </r>
       <r>   -13.3293     0.0000     4.0000 </r>
       <r>   -13.3221     0.0000     4.0000 </r>
       <r>   -13.3150     0.0000     4.0000 </r>
       <r>   -13.3079     0.0000     4.0000 </r>
       <r>   -13.3008     0.0000     4.0000 </r>
       <r>   -13.2937     0.0000     4.0000 </r>
       <r>   -13.2866     0.0000     4.0000 </r>
       <r>   -13.2794     0.0000     4.0000 </r>
       <r>   -13.2723     0.0000     4.0000 </r>
       <r>   -13.2652     0.0000     4.0000 </r>
       <r>   -13.2581     0.0000     4.0000 </r>
       <r>   -13.2510     0.0000     4.0000 </r>
       <r>   -13.2438     0.0000     4.0000 </r>
       <r>   -13.2367     0.0000     4.0000 </r>
       <r>   -13.2296     0.0000     4.0000 </r>
       <r>   -13.2225     0.0000     4.0000 </r>
       <r>   -13.2154     0.0000     4.0000 </r>
       <r>   -13.2082     0.0000     4.0000 </r>
       <r>   -13.2011     0.0000     4.0000 </r>
       <r>   -13.1940     0.0000     4.0000 </r>
       <r>   -13.1869     0.0000     4.0000 </r>
       <r>   -13.1798     0.0000     4.0000 </r>
       <r>   -13.1726     0.0000     4.0000 </r>
       <r>   -13.1655     0.0000     4.0000 </r>
       <r>   -13.1584     0.0000     4.0000 </r>
       <r>   -13.1513     0.0000     4.0000 </r>
       <r>   -13.1442     0.0000     4.0000 </r>
       <r>   -13.1370     0.0000     4.0000 </r>
       <r>   -13.1299     0.0000     4.0000 </r>
       <r>   -13.1228     0.0000     4.0000 </r>
       <r>   -13.1157     0.0000     4.0000 </r>
       <r>   -13.1086     0.0000     4.0000 </r>
       <r>   -13.1015     0.0000     4.0000 </r>
       <r>   -13.0943     0.0000     4.0000 </r>
       <r>   -13.0872     0.0000     4.0000 </r>
       <r>   -13.0801     0.0000     4.0000 </r>
       <r>   -13.0730     0.0000     4.0000 </r>
       <r>   -13.0659     0.0000     4.0000 </r>
       <r>   -13.0587     0.0000     4.0000 </r>
       <r>   -13.0516     0.0000     4.0000 </r>
       <r>   -13.0445     0.0000     4.0000 </r>
       <r>   -13.0374     0.0000     4.0000 </r>
       <r>   -13.0303     0.0000     4.0000 </r>
       <r>   -13.0231     0.0000     4.0000 </r>
       <r>   -13.0160     0.0000     4.0000 </r>
       <r>   -13.0089     0.0000     4.0000 </r>
       <r>   -13.0018     0.0000     4.0000 </r>
       <r>   -12.9947     0.0000     4.0000 </r>
       <r>   -12.9875     0.0000     4.0000 </r>
       <r>   -12.9804     0.0000     4.0000 </r>
       <r>   -12.9733     0.0000     4.0000 </r>
       <r>   -12.9662     0.0000     4.0000 </r>
       <r>   -12.9591     0.0000     4.0000 </r>
       <r>   -12.9519     0.0000     4.0000 </r>
       <r>   -12.9448     0.0000     4.0000 </r>
       <r>   -12.9377     0.0000     4.0000 </r>
       <r>   -12.9306     0.0000     4.0000 </r>
       <r>   -12.9235     0.0000     4.0000 </r>
       <r>   -12.9164     0.0000     4.0000 </r>
       <r>   -12.9092     0.0000     4.0000 </r>
       <r>   -12.9021     0.0000     4.0000 </r>
       <r>   -12.8950     0.0000     4.0000 </r>
       <r>   -12.8879     0.0000     4.0000 </r>
       <r>   -12.8808     0.0000     4.0000 </r>
       <r>   -12.8736     0.0000     4.0000 </r>
       <r>   -12.8665     0.0000     4.0000 </r>
       <r>   -12.8594     0.0000     4.0000 </r>
       <r>   -12.8523     0.0000     4.0000 </r>
       <r>   -12.8452     0.0000     4.0000 </r>
       <r>   -12.8380     0.0000     4.0000 </r>
       <r>   -12.8309     0.0000     4.0000 </r>
       <r>   -12.8238     0.0000     4.0000 </r>
       <r>   -12.8167     0.0000     4.0000 </r>
       <r>   -12.8096     0.0000     4.0000 </r>
       <r>   -12.8024     0.0000     4.0000 </r>
       <r>   -12.7953     0.0000     4.0000 </r>
       <r>   -12.7882     0.0000     4.0000 </r>
       <r>   -12.7811     0.0000     4.0000 </r>
       <r>   -12.7740     0.0000     4.0000 </r>
       <r>   -12.7669     0.0000     4.0000 </r>
       <r>   -12.7597     0.0000     4.0000 </r>
       <r>   -12.7526     0.0000     4.0000 </r>
       <r>   -12.7455     0.0000     4.0000 </r>
       <r>   -12.7384     0.0000     4.0000 </r>
       <r>   -12.7313     0.0000     4.0000 </r>
       <r>   -12.7241     0.0000     4.0000 </r>
       <r>   -12.7170     0.0000     4.0000 </r>
       <r>   -12.7099     0.0000     4.0000 </r>
       <r>   -12.7028     0.0000     4.0000 </r>
       <r>   -12.6957     0.0000     4.0000 </r>
       <r>   -12.6885     0.0000     4.0000 </r>
       <r>   -12.6814     0.0000     4.0000 </r>
       <r>   -12.6743     0.0000     4.0000 </r>
       <r>   -12.6672     0.0000     4.0000 </r>
       <r>   -12.6601     0.0000     4.0000 </r>
       <r>   -12.6529     0.0000     4.0000 </r>
       <r>   -12.6458     0.0000     4.0000 </r>
       <r>   -12.6387     0.0000     4.0000 </r>
       <r>   -12.6316     0.0000     4.0000 </r>
       <r>   -12.6245     0.0000     4.0000 </r>
       <r>   -12.6173     0.0000     4.0000 </r>
       <r>   -12.6102     0.0000     4.0000 </r>
       <r>   -12.6031     0.0000     4.0000 </r>
       <r>   -12.5960     0.0000     4.0000 </r>
       <r>   -12.5889     0.0000     4.0000 </r>
       <r>   -12.5818     0.0000     4.0000 </r>
       <r>   -12.5746     0.0000     4.0000 </r>
       <r>   -12.5675     0.0000     4.0000 </r>
       <r>   -12.5604     0.0000     4.0000 </r>
       <r>   -12.5533     0.0000     4.0000 </r>
       <r>   -12.5462     0.0000     4.0000 </r>
       <r>   -12.5390     0.0000     4.0000 </r>
       <r>   -12.5319     0.0000     4.0000 </r>
       <r>   -12.5248     0.0000     4.0000 </r>
       <r>   -12.5177     0.0000     4.0000 </r>
       <r>   -12.5106     0.0000     4.0000 </r>
       <r>   -12.5034     0.0000     4.0000 </r>
       <r>   -12.4963     0.0000     4.0000 </r>
       <r>   -12.4892     0.0000     4.0000 </r>
       <r>   -12.4821     0.0000     4.0000 </r>
       <r>   -12.4750     0.0000     4.0000 </r>
       <r>   -12.4678     0.0000     4.0000 </r>
       <r>   -12.4607     0.0000     4.0000 </r>
       <r>   -12.4536     0.0000     4.0000 </r>
       <r>   -12.4465     0.0000     4.0000 </r>
       <r>   -12.4394     0.0000     4.0000 </r>
       <r>   -12.4322     0.0000     4.0000 </r>
       <r>   -12.4251     0.0000     4.0000 </r>
       <r>   -12.4180     0.0000     4.0000 </r>
       <r>   -12.4109     0.0000     4.0000 </r>
       <r>   -12.4038     0.0000     4.0000 </r>
       <r>   -12.3967     0.0000     4.0000 </r>
       <r>   -12.3895     0.0000     4.0000 </r>
       <r>   -12.3824     0.0000     4.0000 </r>
       <r>   -12.3753     0.0000     4.0000 </r>
       <r>   -12.3682     0.0000     4.0000 </r>
       <r>   -12.3611     0.0000     4.0000 </r>
       <r>   -12.3539     0.0000     4.0000 </r>
       <r>   -12.3468     0.0000     4.0000 </r>
       <r>   -12.3397     0.0000     4.0000 </r>
       <r>   -12.3326     0.0000     4.0000 </r>
       <r>   -12.3255     0.0000     4.0000 </r>
       <r>   -12.3183     0.0000     4.0000 </r>
       <r>   -12.3112     0.0000     4.0000 </r>
       <r>   -12.3041     0.0000     4.0000 </r>
       <r>   -12.2970     0.0000     4.0000 </r>
       <r>   -12.2899     0.0000     4.0000 </r>
       <r>   -12.2827     0.0000     4.0000 </r>
       <r>   -12.2756     0.0000     4.0000 </r>
       <r>   -12.2685     0.0000     4.0000 </r>
       <r>   -12.2614     0.0000     4.0000 </r>
       <r>   -12.2543     0.0000     4.0000 </r>
       <r>   -12.2472     0.0000     4.0000 </r>
       <r>   -12.2400     0.0000     4.0000 </r>
       <r>   -12.2329     0.0000     4.0000 </r>
       <r>   -12.2258     0.0000     4.0000 </r>
       <r>   -12.2187     0.0000     4.0000 </r>
       <r>   -12.2116     0.0000     4.0000 </r>
       <r>   -12.2044     0.0000     4.0000 </r>
       <r>   -12.1973     0.0000     4.0000 </r>
       <r>   -12.1902     0.0000     4.0000 </r>
       <r>   -12.1831     0.0000     4.0000 </r>
       <r>   -12.1760     0.0000     4.0000 </r>
       <r>   -12.1688     0.0000     4.0000 </r>
       <r>   -12.1617     0.0000     4.0000 </r>
       <r>   -12.1546     0.0000     4.0000 </r>
       <r>   -12.1475     0.0000     4.0000 </r>
       <r>   -12.1404     0.0000     4.0000 </r>
       <r>   -12.1332     0.0000     4.0000 </r>
       <r>   -12.1261     0.0000     4.0000 </r>
       <r>   -12.1190     0.0000     4.0000 </r>
       <r>   -12.1119     0.0000     4.0000 </r>
       <r>   -12.1048     0.0000     4.0000 </r>
       <r>   -12.0976     0.0000     4.0000 </r>
       <r>   -12.0905     0.0000     4.0000 </r>
       <r>   -12.0834     0.0000     4.0000 </r>
       <r>   -12.0763     0.0000     4.0000 </r>
       <r>   -12.0692     0.0000     4.0000 </r>
       <r>   -12.0621     0.0000     4.0000 </r>
       <r>   -12.0549     0.0000     4.0000 </r>
       <r>   -12.0478     0.0000     4.0000 </r>
       <r>   -12.0407     0.0000     4.0000 </r>
       <r>   -12.0336     0.0000     4.0000 </r>
       <r>   -12.0265     0.0000     4.0000 </r>
       <r>   -12.0193     0.0000     4.0000 </r>
       <r>   -12.0122     0.0000     4.0000 </r>
       <r>   -12.0051     0.0000     4.0000 </r>
       <r>   -11.9980     0.0000     4.0000 </r>
       <r>   -11.9909     0.0000     4.0000 </r>
       <r>   -11.9837     0.0000     4.0000 </r>
       <r>   -11.9766     0.0000     4.0000 </r>
       <r>   -11.9695     0.0000     4.0000 </r>
       <r>   -11.9624     0.0000     4.0000 </r>
       <r>   -11.9553     0.0000     4.0000 </r>
       <r>   -11.9481     0.0000     4.0000 </r>
       <r>   -11.9410     0.0000     4.0000 </r>
       <r>   -11.9339     0.0000     4.0000 </r>
       <r>   -11.9268     0.0000     4.0000 </r>
       <r>   -11.9197     0.0000     4.0000 </r>
       <r>   -11.9125     0.0000     4.0000 </r>
       <r>   -11.9054     0.0000     4.0000 </r>
       <r>   -11.8983     0.0000     4.0000 </r>
       <r>   -11.8912     0.0000     4.0000 </r>
       <r>   -11.8841     0.0000     4.0000 </r>
       <r>   -11.8770     0.0000     4.0000 </r>
       <r>   -11.8698     0.0000     4.0000 </r>
       <r>   -11.8627     0.0000     4.0000 </r>
       <r>   -11.8556     0.0000     4.0000 </r>
       <r>   -11.8485     0.0000     4.0000 </r>
       <r>   -11.8414     0.0000     4.0000 </r>
       <r>   -11.8342     0.0000     4.0000 </r>
       <r>   -11.8271     0.0000     4.0000 </r>
       <r>   -11.8200     0.0000     4.0000 </r>
       <r>   -11.8129     0.0000     4.0000 </r>
       <r>   -11.8058     0.0000     4.0000 </r>
       <r>   -11.7986     0.0000     4.0000 </r>
       <r>   -11.7915     0.0000     4.0000 </r>
       <r>   -11.7844     0.0000     4.0000 </r>
       <r>   -11.7773     0.0000     4.0000 </r>
       <r>   -11.7702     0.0000     4.0000 </r>
       <r>   -11.7630     0.0000     4.0000 </r>
       <r>   -11.7559     0.0000     4.0000 </r>
       <r>   -11.7488     0.0000     4.0000 </r>
       <r>   -11.7417     0.0000     4.0000 </r>
       <r>   -11.7346     0.0000     4.0000 </r>
       <r>   -11.7274     0.0000     4.0000 </r>
       <r>   -11.7203     0.0000     4.0000 </r>
       <r>   -11.7132     0.0000     4.0000 </r>
       <r>   -11.7061     0.0000     4.0000 </r>
       <r>   -11.6990     0.0000     4.0000 </r>
       <r>   -11.6919     0.0000     4.0000 </r>
       <r>   -11.6847     0.0000     4.0000 </r>
       <r>   -11.6776     0.0000     4.0000 </r>
       <r>   -11.6705     0.0000     4.0000 </r>
       <r>   -11.6634     0.0000     4.0000 </r>
       <r>   -11.6563     0.0000     4.0000 </r>
       <r>   -11.6491     0.0000     4.0000 </r>
       <r>   -11.6420     0.0000     4.0000 </r>
       <r>   -11.6349     0.0000     4.0000 </r>
       <r>   -11.6278     0.0000     4.0000 </r>
       <r>   -11.6207     0.0000     4.0000 </r>
       <r>   -11.6135     0.0000     4.0000 </r>
       <r>   -11.6064     0.0000     4.0000 </r>
       <r>   -11.5993     0.0000     4.0000 </r>
       <r>   -11.5922     0.0000     4.0000 </r>
       <r>   -11.5851     0.0000     4.0000 </r>
       <r>   -11.5779     0.0000     4.0000 </r>
       <r>   -11.5708     0.0000     4.0000 </r>
       <r>   -11.5637     0.0000     4.0000 </r>
[...]
       <r>     2.1763     1.4213    25.0539 </r>
       <r>     2.1834     1.4724    25.0644 </r>
       <r>     2.1905     1.5342    25.0753 </r>
       <r>     2.1977     1.6055    25.0867 </r>
       <r>     2.2048     1.6854    25.0987 </r>
       <r>     2.2119     1.7726    25.1113 </r>
       <r>     2.2190     1.8659    25.1246 </r>
       <r>     2.2261     1.9640    25.1386 </r>
       <r>     2.2333     2.0655    25.1533 </r>
       <r>     2.2404     2.1694    25.1687 </r>
       <r>     2.2475     2.2745    25.1849 </r>
       <r>     2.2546     2.3798    25.2019 </r>
       <r>     2.2617     2.4846    25.2196 </r>
       <r>     2.2689     2.5882    25.2380 </r>
       <r>     2.2760     2.6903    25.2571 </r>
       <r>     2.2831     2.7908    25.2770 </r>
       <r>     2.2902     2.8897    25.2976 </r>
       <r>     2.2973     2.9872    25.3189 </r>
       <r>     2.3045     3.0835    25.3408 </r>
       <r>     2.3116     3.1790    25.3634 </r>
       <r>     2.3187     3.2738    25.3867 </r>
       <r>     2.3258     3.3682    25.4107 </r>
       <r>     2.3329     3.4622    25.4354 </r>
       <r>     2.3401     3.5555    25.4607 </r>
       <r>     2.3472     3.6479    25.4867 </r>
       <r>     2.3543     3.7389    25.5133 </r>
       <r>     2.3614     3.8276    25.5405 </r>
       <r>     2.3685     3.9133    25.5684 </r>
       <r>     2.3756     3.9951    25.5968 </r>
       <r>     2.3828     4.0720    25.6258 </r>
       <r>     2.3899     4.1431    25.6553 </r>
       <r>     2.3970     4.2073    25.6853 </r>
       <r>     2.4041     4.2641    25.7156 </r>
       <r>     2.4112     4.3125    25.7463 </r>
       <r>     2.4184     4.3520    25.7773 </r>
       <r>     2.4255     4.3823    25.8085 </r>
       <r>     2.4326     4.4028    25.8398 </r>
       <r>     2.4397     4.4135    25.8713 </r>
       <r>     2.4468     4.4142    25.9027 </r>
       <r>     2.4540     4.4048    25.9340 </r>
       <r>     2.4611     4.3854    25.9653 </r>
       <r>     2.4682     4.3563    25.9963 </r>
       <r>     2.4753     4.3177    26.0270 </r>
       <r>     2.4824     4.2701    26.0574 </r>
       <r>     2.4896     4.2142    26.0874 </r>
       <r>     2.4967     4.1509    26.1170 </r>
       <r>     2.5038     4.0812    26.1460 </r>
       <r>     2.5109     4.0066    26.1745 </r>
       <r>     2.5180     3.9288    26.2025 </r>
       <r>     2.5252     3.8496    26.2299 </r>
       <r>     2.5323     3.7711    26.2568 </r>
       <r>     2.5394     3.6956    26.2831 </r>
       <r>     2.5465     3.6254    26.3089 </r>
       <r>     2.5536     3.5628    26.3343 </r>
       <r>     2.5607     3.5098    26.3592 </r>
       <r>     2.5679     3.4684    26.3839 </r>
       <r>     2.5750     3.4400    26.4084 </r>
       <r>     2.5821     3.4256    26.4328 </r>
       <r>     2.5892     3.4257    26.4572 </r>
       <r>     2.5963     3.4402    26.4817 </r>
       <r>     2.6035     3.4684    26.5064 </r>
       <r>     2.6106     3.5089    26.5314 </r>
       <r>     2.6177     3.5598    26.5567 </r>
       <r>     2.6248     3.6189    26.5825 </r>
       <r>     2.6319     3.6836    26.6087 </r>
       <r>     2.6391     3.7508    26.6354 </r>
       <r>     2.6462     3.8178    26.6626 </r>
       <r>     2.6533     3.8817    26.6902 </r>
       <r>     2.6604     3.9398    26.7183 </r>
       <r>     2.6675     3.9901    26.7467 </r>
       <r>     2.6747     4.0308    26.7754 </r>
       <r>     2.6818     4.0608    26.8043 </r>
       <r>     2.6889     4.0794    26.8333 </r>
       <r>     2.6960     4.0869    26.8624 </r>
       <r>     2.7031     4.0839    26.8915 </r>
       <r>     2.7103     4.0717    26.9205 </r>
       <r>     2.7174     4.0520    26.9493 </r>
       <r>     2.7245     4.0268    26.9780 </r>
       <r>     2.7316     3.9985    27.0065 </r>
       <r>     2.7387     3.9695    27.0347 </r>
       <r>     2.7458     3.9421    27.0628 </r>
       <r>     2.7530     3.9185    27.0907 </r>
       <r>     2.7601     3.9008    27.1184 </r>
       <r>     2.7672     3.8903    27.1461 </r>
       <r>     2.7743     3.8884    27.1738 </r>
       <r>     2.7814     3.8956    27.2016 </r>
       <r>     2.7886     3.9122    27.2294 </r>
       <r>     2.7957     3.9379    27.2574 </r>
       <r>     2.8028     3.9721    27.2857 </r>
       <r>     2.8099     4.0137    27.3143 </r>
       <r>     2.8170     4.0613    27.3432 </r>
       <r>     2.8242     4.1133    27.3725 </r>
       <r>     2.8313     4.1682    27.4022 </r>
       <r>     2.8384     4.2242    27.4322 </r>
       <r>     2.8455     4.2796    27.4627 </r>
       <r>     2.8526     4.3328    27.4935 </r>
       <r>     2.8598     4.3825    27.5247 </r>
       <r>     2.8669     4.4274    27.5563 </r>
       <r>     2.8740     4.4668    27.5881 </r>
       <r>     2.8811     4.4998    27.6201 </r>
       <r>     2.8882     4.5261    27.6523 </r>
       <r>     2.8953     4.5456    27.6847 </r>
       <r>     2.9025     4.5584    27.7171 </r>
       <r>     2.9096     4.5648    27.7496 </r>
       <r>     2.9167     4.5654    27.7821 </r>
       <r>     2.9238     4.5609    27.8146 </r>
       <r>     2.9309     4.5523    27.8470 </r>
       <r>     2.9381     4.5405    27.8793 </r>
       <r>     2.9452     4.5269    27.9116 </r>
       <r>     2.9523     4.5128    27.9437 </r>
       <r>     2.9594     4.4996    27.9757 </r>
       <r>     2.9665     4.4889    28.0077 </r>
       <r>     2.9737     4.4824    28.0396 </r>
       <r>     2.9808     4.4815    28.0715 </r>
       <r>     2.9879     4.4880    28.1035 </r>
       <r>     2.9950     4.5034    28.1355 </r>
       <r>     3.0021     4.5291    28.1678 </r>
       <r>     3.0093     4.5663    28.2003 </r>
       <r>     3.0164     4.6158    28.2331 </r>
       <r>     3.0235     4.6784    28.2664 </r>
       <r>     3.0306     4.7542    28.3003 </r>
       <r>     3.0377     4.8430    28.3348 </r>
       <r>     3.0449     4.9444    28.3700 </r>
       <r>     3.0520     5.0573    28.4060 </r>
       <r>     3.0591     5.1803    28.4428 </r>
       <r>     3.0662     5.3118    28.4807 </r>
       <r>     3.0733     5.4498    28.5195 </r>
       <r>     3.0804     5.5922    28.5593 </r>
       <r>     3.0876     5.7369    28.6001 </r>
       <r>     3.0947     5.8818    28.6420 </r>
       <r>     3.1018     6.0249    28.6849 </r>
       <r>     3.1089     6.1643    28.7288 </r>
       <r>     3.1160     6.2986    28.7736 </r>
       <r>     3.1232     6.4266    28.8194 </r>
       <r>     3.1303     6.5473    28.8660 </r>
       <r>     3.1374     6.6604    28.9134 </r>
       <r>     3.1445     6.7655    28.9615 </r>
       <r>     3.1516     6.8626    29.0104 </r>
       <r>     3.1588     6.9519    29.0599 </r>
       <r>     3.1659     7.0336    29.1100 </r>
       <r>     3.1730     7.1079    29.1606 </r>
       <r>     3.1801     7.1751    29.2117 </r>
       <r>     3.1872     7.2352    29.2632 </r>
       <r>     3.1944     7.2881    29.3150 </r>
       <r>     3.2015     7.3334    29.3673 </r>
       <r>     3.2086     7.3707    29.4197 </r>
       <r>     3.2157     7.3993    29.4724 </r>
       <r>     3.2228     7.4185    29.5252 </r>
       <r>     3.2300     7.4274    29.5781 </r>
       <r>     3.2371     7.4255    29.6310 </r>
       <r>     3.2442     7.4121    29.6837 </r>
       <r>     3.2513     7.3868    29.7363 </r>
       <r>     3.2584     7.3496    29.7886 </r>
       <r>     3.2655     7.3007    29.8406 </r>
       <r>     3.2727     7.2406    29.8922 </r>
       <r>     3.2798     7.1703    29.9432 </r>
       <r>     3.2869     7.0909    29.9937 </r>
       <r>     3.2940     7.0039    30.0435 </r>
       <r>     3.3011     6.9108    30.0927 </r>
       <r>     3.3083     6.8135    30.1413 </r>
       <r>     3.3154     6.7134    30.1890 </r>
       <r>     3.3225     6.6121    30.2361 </r>
       <r>     3.3296     6.5109    30.2825 </r>
       <r>     3.3367     6.4110    30.3281 </r>
       <r>     3.3439     6.3131    30.3731 </r>
       <r>     3.3510     6.2177    30.4173 </r>
       <r>     3.3581     6.1249    30.4609 </r>
       <r>     3.3652     6.0346    30.5039 </r>
       <r>     3.3723     5.9465    30.5462 </r>
       <r>     3.3795     5.8601    30.5879 </r>
       <r>     3.3866     5.7747    30.6291 </r>
       <r>     3.3937     5.6897    30.6696 </r>
       <r>     3.4008     5.6045    30.7095 </r>
       <r>     3.4079     5.5186    30.7487 </r>
       <r>     3.4150     5.4315    30.7874 </r>
       <r>     3.4222     5.3430    30.8255 </r>
       <r>     3.4293     5.2531    30.8628 </r>
       <r>     3.4364     5.1616    30.8996 </r>
       <r>     3.4435     5.0688    30.9357 </r>
       <r>     3.4506     4.9748    30.9711 </r>
       <r>     3.4578     4.8798    31.0058 </r>
       <r>     3.4649     4.7841    31.0399 </r>
       <r>     3.4720     4.6879    31.0733 </r>
       <r>     3.4791     4.5911    31.1060 </r>
       <r>     3.4862     4.4939    31.1379 </r>
       <r>     3.4934     4.3961    31.1692 </r>
       <r>     3.5005     4.2973    31.1998 </r>
       <r>     3.5076     4.1974    31.2297 </r>
       <r>     3.5147     4.0959    31.2589 </r>
       <r>     3.5218     3.9923    31.2873 </r>
       <r>     3.5290     3.8861    31.3150 </r>
       <r>     3.5361     3.7770    31.3419 </r>
       <r>     3.5432     3.6646    31.3679 </r>
       <r>     3.5503     3.5488    31.3932 </r>
       <r>     3.5574     3.4295    31.4176 </r>
       <r>     3.5646     3.3068    31.4412 </r>
       <r>     3.5717     3.1813    31.4638 </r>
       <r>     3.5788     3.0535    31.4856 </r>
       <r>     3.5859     2.9242    31.5064 </r>
       <r>     3.5930     2.7946    31.5263 </r>
       <r>     3.6001     2.6657    31.5452 </r>
       <r>     3.6073     2.5389    31.5633 </r>
       <r>     3.6144     2.4155    31.5805 </r>
       <r>     3.6215     2.2969    31.5969 </r>
       <r>     3.6286     2.1843    31.6124 </r>
       <r>     3.6357     2.0788    31.6272 </r>
       <r>     3.6429     1.9814    31.6413 </r>
       <r>     3.6500     1.8927    31.6548 </r>
       <r>     3.6571     1.8132    31.6677 </r>
       <r>     3.6642     1.7429    31.6801 </r>
       <r>     3.6713     1.6817    31.6921 </r>
       <r>     3.6785     1.6291    31.7037 </r>
       <r>     3.6856     1.5843    31.7150 </r>
       <r>     3.6927     1.5464    31.7260 </r>
       <r>     3.6998     1.5142    31.7368 </r>
       <r>     3.7069     1.4865    31.7473 </r>
       <r>     3.7141     1.4619    31.7577 </r>
       <r>     3.7212     1.4392    31.7680 </r>
       <r>     3.7283     1.4171    31.7781 </r>
       <r>     3.7354     1.3946    31.7880 </r>
       <r>     3.7425     1.3706    31.7978 </r>
       <r>     3.7497     1.3447    31.8073 </r>
       <r>     3.7568     1.3161    31.8167 </r>
       <r>     3.7639     1.2848    31.8259 </r>
       <r>     3.7710     1.2507    31.8348 </r>
       <r>     3.7781     1.2139    31.8434 </r>
       <r>     3.7852     1.1749    31.8518 </r>
       <r>     3.7924     1.1340    31.8598 </r>
       <r>     3.7995     1.0919    31.8676 </r>
       <r>     3.8066     1.0491    31.8751 </r>
       <r>     3.8137     1.0064    31.8822 </r>
       <r>     3.8208     0.9642    31.8891 </r>
       <r>     3.8280     0.9231    31.8957 </r>
       <r>     3.8351     0.8834    31.9020 </r>
       <r>     3.8422     0.8456    31.9080 </r>
       <r>     3.8493     0.8098    31.9138 </r>
       <r>     3.8564     0.7761    31.9193 </r>
       <r>     3.8636     0.7445    31.9246 </r>
       <r>     3.8707     0.7147    31.9297 </r>
       <r>     3.8778     0.6867    31.9346 </r>
       <r>     3.8849     0.6601    31.9393 </r>
       <r>     3.8920     0.6346    31.9438 </r>
       <r>     3.8992     0.6098    31.9481 </r>
       <r>     3.9063     0.5855    31.9523 </r>
       <r>     3.9134     0.5613    31.9563 </r>
       <r>     3.9205     0.5369    31.9601 </r>
       <r>     3.9276     0.5122    31.9637 </r>
       <r>     3.9347     0.4869    31.9672 </r>
       <r>     3.9419     0.4609    31.9705 </r>
       <r>     3.9490     0.4344    31.9736 </r>
       <r>     3.9561     0.4072    31.9765 </r>
       <r>     3.9632     0.3796    31.9792 </r>
       <r>     3.9703     0.3517    31.9817 </r>
       <r>     3.9775     0.3236    31.9840 </r>
       <r>     3.9846     0.2958    31.9861 </r>
       <r>     3.9917     0.2683    31.9880 </r>
       <r>     3.9988     0.2416    31.9897 </r>
       <r>     4.0059     0.2158    31.9913 </r>
       <r>     4.0131     0.1912    31.9926 </r>
       <r>     4.0202     0.1680    31.9938 </r>
       <r>     4.0273     0.1463    31.9949 </r>
       <r>     4.0344     0.1263    31.9958 </r>
       <r>     4.0415     0.1081    31.9965 </r>
       <r>     4.0487     0.0917    31.9972 </r>
       <r>     4.0558     0.0770    31.9977 </r>
       <r>     4.0629     0.0641    31.9982 </r>
       <r>     4.0700     0.0529    31.9986 </r>
       <r>     4.0771     0.0432    31.9989 </r>
       <r>     4.0843     0.0350    31.9991 </r>
       <r>     4.0914     0.0280    31.9993 </r>
       <r>     4.0985     0.0222    31.9995 </r>
       <r>     4.1056     0.0175    31.9996 </r>
       <r>     4.1127     0.0136    31.9997 </r>
       <r>     4.1198     0.0105    31.9998 </r>
       <r>     4.1270     0.0080    31.9998 </r>
       <r>     4.1341     0.0061    31.9999 </r>
       <r>     4.1412     0.0045    31.9999 </r>
       <r>     4.1483     0.0034    31.9999 </r>
       <r>     4.1554     0.0025    32.0000 </r>
       <r>     4.1626     0.0018    32.0000 </r>
       <r>     4.1697     0.0013    32.0000 </r>
       <r>     4.1768     0.0009    32.0000 </r>
       <r>     4.1839     0.0006    32.0000 </r>
       <r>     4.1910     0.0005    32.0000 </r>
       <r>     4.1982     0.0003    32.0000 </r>
       <r>     4.2053     0.0002    32.0000 </r>
       <r>     4.2124     0.0001    32.0000 </r>
       <r>     4.2195     0.0001    32.0000 </r>
       <r>     4.2266     0.0001    32.0000 </r>
       <r>     4.2338     0.0000    32.0000 </r>
       <r>     4.2409     0.0000    32.0000 </r>
       <r>     4.2480     0.0000    32.0000 </r>
       <r>     4.2551     0.0000    32.0000 </r>
       <r>     4.2622     0.0000    32.0000 </r>
       <r>     4.2694     0.0000    32.0000 </r>
       <r>     4.2765     0.0000    32.0000 </r>
       <r>     4.2836     0.0000    32.0000 </r>
       <r>     4.2907     0.0000    32.0000 </r>
       <r>     4.2978     0.0000    32.0000 </r>
       <r>     4.3049     0.0000    32.0000 </r>
       <r>     4.3121     0.0000    32.0000 </r>
       <r>     4.3192     0.0000    32.0000 </r>
       <r>     4.3263     0.0000    32.0000 </r>
       <r>     4.3334     0.0000    32.0000 </r>
       <r>     4.3405     0.0000    32.0000 </r>
       <r>     4.3477     0.0000    32.0000 </r>
       <r>     4.3548     0.0000    32.0000 </r>
       <r>     4.3619     0.0000    32.0000 </r>
       <r>     4.3690     0.0000    32.0000 </r>
       <r>     4.3761     0.0000    32.0000 </r>
       <r>     4.3833     0.0000    32.0000 </r>
       <r>     4.3904     0.0000    32.0000 </r>
       <r>     4.3975     0.0000    32.0000 </r>
       <r>     4.4046     0.0000    32.0000 </r>
       <r>     4.4117     0.0000    32.0000 </r>
       <r>     4.4189     0.0000    32.0000 </r>
       <r>     4.4260     0.0000    32.0000 </r>
       <r>     4.4331     0.0000    32.0000 </r>
       <r>     4.4402     0.0000    32.0000 </r>
       <r>     4.4473     0.0000    32.0000 </r>
       <r>     4.4544     0.0000    32.0000 </r>
       <r>     4.4616     0.0000    32.0000 </r>
       <r>     4.4687     0.0000    32.0000 </r>
       <r>     4.4758     0.0000    32.0000 </r>
       <r>     4.4829     0.0000    32.0000 </r>
       <r>     4.4900     0.0000    32.0000 </r>
       <r>     4.4972     0.0000    32.0000 </r>
       <r>     4.5043     0.0000    32.0000 </r>
       <r>     4.5114     0.0000    32.0000 </r>
       <r>     4.5185     0.0000    32.0000 </r>
       <r>     4.5256     0.0000    32.0000 </r>
       <r>     4.5328     0.0000    32.0000 </r>
       <r>     4.5399     0.0000    32.0000 </r>
       <r>     4.5470     0.0000    32.0000 </r>
       <r>     4.5541     0.0000    32.0000 </r>
       <r>     4.5612     0.0000    32.0000 </r>
       <r>     4.5684     0.0000    32.0000 </r>
       <r>     4.5755     0.0000    32.0000 </r>
       <r>     4.5826     0.0000    32.0000 </r>
       <r>     4.5897     0.0000    32.0000 </r>
       <r>     4.5968     0.0000    32.0000 </r>
       <r>     4.6040     0.0000    32.0000 </r>
       <r>     4.6111     0.0000    32.0000 </r>
       <r>     4.6182     0.0000    32.0000 </r>
       <r>     4.6253     0.0000    32.0000 </r>
       <r>     4.6324     0.0000    32.0000 </r>
       <r>     4.6395     0.0000    32.0000 </r>
       <r>     4.6467     0.0000    32.0000 </r>
       <r>     4.6538     0.0000    32.0000 </r>
       <r>     4.6609     0.0000    32.0000 </r>
       <r>     4.6680     0.0000    32.0000 </r>
       <r>     4.6751     0.0000    32.0000 </r>
       <r>     4.6823     0.0000    32.0000 </r>
       <r>     4.6894     0.0000    32.0000 </r>
       <r>     4.6965     0.0000    32.0000 </r>
       <r>     4.7036     0.0000    32.0000 </r>
       <r>     4.7107     0.0000    32.0000 </r>
       <r>     4.7179     0.0000    32.0000 </r>
       <r>     4.7250     0.0000    32.0000 </r>
       <r>     4.7321     0.0000    32.0000 </r>
       <r>     4.7392     0.0000    32.0000 </r>
       <r>     4.7463     0.0000    32.0000 </r>
       <r>     4.7535     0.0000    32.0000 </r>
       <r>     4.7606     0.0000    32.0000 </r>
       <r>     4.7677     0.0000    32.0000 </r>
       <r>     4.7748     0.0000    32.0000 </r>
       <r>     4.7819     0.0000    32.0000 </r>
       <r>     4.7891     0.0000    32.0000 </r>
       <r>     4.7962     0.0000    32.0000 </r>
       <r>     4.8033     0.0000    32.0000 </r>
       <r>     4.8104     0.0000    32.0000 </r>
       <r>     4.8175     0.0000    32.0000 </r>
       <r>     4.8246     0.0000    32.0000 </r>
       <r>     4.8318     0.0000    32.0000 </r>
       <r>     4.8389     0.0000    32.0000 </r>
       <r>     4.8460     0.0000    32.0000 </r>
       <r>     4.8531     0.0000    32.0000 </r>
       <r>     4.8602     0.0000    32.0000 </r>
       <r>     4.8674     0.0000    32.0000 </r>
       <r>     4.8745     0.0000    32.0000 </r>
       <r>     4.8816     0.0000    32.0000 </r>
       <r>     4.8887     0.0000    32.0000 </r>
       <r>     4.8958     0.0000    32.0000 </r>
       <r>     4.9030     0.0000    32.0000 </r>
       <r>     4.9101     0.0000    32.0000 </r>
       <r>     4.9172     0.0000    32.0000 </r>
       <r>     4.9243     0.0000    32.0000 </r>
       <r>     4.9314     0.0000    32.0000 </r>
      </set>
     </set>
    </array>
   </total>
  </dos>
 </calculation>
 <structure name="finalpos" >
  <crystal>
   <varray name="basis" >
    <v>       3.91755646       0.00000000       0.00000000 </v>
    <v>       0.00000000       3.91755646       0.00000000 </v>
    <v>       0.00000000       0.00000000      15.30625523 </v>
   </varray>
   <i name="volume">    234.90890477 </i>
   <varray name="rec_basis" >
    <v>       0.25526116       0.00000000       0.00000000 </v>
    <v>       0.00000000       0.25526116       0.00000000 </v>
    <v>       0.00000000       0.00000000       0.06533277 </v>
   </varray>
  </crystal>
  <varray name="positions" >
   <v>       0.00000000       0.25000000       0.56671811 </v>
   <v>       0.50000000       0.75000000       0.43329188 </v>
   <v>      -0.00000000       0.25000000       0.41164317 </v>
   <v>       0.50000000       0.75000000       0.58836684 </v>
  </varray>
 </structure>
</modeling>
