   4   4   0   0
  0.1003517E+03  0.4068310E-09  0.4960647E-09  0.1988988E-08  0.5000000E-15
  1.000000000000000E-004
  CAR 
 2D Structure                            
      4.36639957    -20.01875321 3001     -3.07818436      1.00000000
    -20.019  0.0000E+00  0.0000E+00
    -20.011  0.0000E+00  0.0000E+00
    -20.002  0.0000E+00  0.0000E+00
    -19.994  0.0000E+00  0.0000E+00
    -19.986  0.0000E+00  0.0000E+00
    -19.978  0.0000E+00  0.0000E+00
    -19.970  0.0000E+00  0.0000E+00
    -19.962  0.0000E+00  0.0000E+00
    -19.954  0.0000E+00  0.0000E+00
    -19.946  0.0000E+00  0.0000E+00
    -19.937  0.0000E+00  0.0000E+00
    -19.929  0.0000E+00  0.0000E+00
    -19.921  0.0000E+00  0.0000E+00
    -19.913  0.0000E+00  0.0000E+00
    -19.905  0.0000E+00  0.0000E+00
    -19.897  0.0000E+00  0.0000E+00
    -19.889  0.0000E+00  0.0000E+00
    -19.881  0.0000E+00  0.0000E+00
    -19.872  0.0000E+00  0.0000E+00
    -19.864  0.0000E+00  0.0000E+00
    -19.856  0.0000E+00  0.0000E+00
    -19.848  0.0000E+00  0.0000E+00
    -19.840  0.0000E+00  0.0000E+00
    -19.832  0.0000E+00  0.0000E+00
    -19.824  0.0000E+00  0.0000E+00
    -19.816  0.0000E+00  0.0000E+00
    -19.807  0.0000E+00  0.0000E+00
    -19.799  0.0000E+00  0.0000E+00
    -19.791  0.0000E+00  0.0000E+00
    -19.783  0.0000E+00  0.0000E+00
    -19.775  0.0000E+00  0.0000E+00
    -19.767  0.0000E+00  0.0000E+00
    -19.759  0.0000E+00  0.0000E+00
    -19.751  0.0000E+00  0.0000E+00
    -19.742  0.0000E+00  0.0000E+00
    -19.734  0.0000E+00  0.0000E+00
    -19.726  0.0000E+00  0.0000E+00
    -19.718  0.0000E+00  0.0000E+00
    -19.710  0.0000E+00  0.0000E+00
    -19.702  0.0000E+00  0.0000E+00
    -19.694  0.0000E+00  0.0000E+00
    -19.685  0.0000E+00  0.0000E+00
    -19.677  0.0000E+00  0.0000E+00
    -19.669  0.0000E+00  0.0000E+00
    -19.661  0.0000E+00  0.0000E+00
    -19.653  0.0000E+00  0.0000E+00
    -19.645  0.0000E+00  0.0000E+00
    -19.637  0.0000E+00  0.0000E+00
    -19.629  0.0000E+00  0.0000E+00
    -19.620  0.0000E+00  0.0000E+00
    -19.612  0.0000E+00  0.0000E+00
    -19.604  0.0000E+00  0.0000E+00
    -19.596  0.0000E+00  0.0000E+00
    -19.588  0.0000E+00  0.0000E+00
    -19.580  0.0000E+00  0.0000E+00
    -19.572  0.0000E+00  0.0000E+00
    -19.564  0.0000E+00  0.0000E+00
    -19.555  0.0000E+00  0.0000E+00
    -19.547  0.0000E+00  0.0000E+00
    -19.539  0.0000E+00  0.0000E+00
    -19.531  0.0000E+00  0.0000E+00
    -19.523  0.0000E+00  0.0000E+00
    -19.515  0.0000E+00  0.0000E+00
    -19.507  0.0000E+00  0.0000E+00
    -19.499  0.0000E+00  0.0000E+00
    -19.490  0.0000E+00  0.0000E+00
    -19.482  0.0000E+00  0.0000E+00
    -19.474  0.0000E+00  0.0000E+00
    -19.466  0.0000E+00  0.0000E+00
    -19.458  0.0000E+00  0.0000E+00
    -19.450  0.0000E+00  0.0000E+00
    -19.442  0.0000E+00  0.0000E+00
    -19.434  0.0000E+00  0.0000E+00
    -19.425  0.0000E+00  0.0000E+00
    -19.417  0.0000E+00  0.0000E+00
    -19.409  0.0000E+00  0.0000E+00
    -19.401  0.0000E+00  0.0000E+00
    -19.393  0.0000E+00  0.0000E+00
    -19.385  0.0000E+00  0.0000E+00
    -19.377  0.0000E+00  0.0000E+00
    -19.368  0.0000E+00  0.0000E+00
    -19.360  0.0000E+00  0.0000E+00
    -19.352  0.0000E+00  0.0000E+00
    -19.344  0.0000E+00  0.0000E+00
    -19.336  0.0000E+00  0.0000E+00
    -19.328  0.0000E+00  0.0000E+00
    -19.320  0.0000E+00  0.0000E+00
    -19.312  0.0000E+00  0.0000E+00
    -19.303  0.0000E+00  0.0000E+00
    -19.295  0.0000E+00  0.0000E+00
    -19.287  0.0000E+00  0.0000E+00
    -19.279  0.0000E+00  0.0000E+00
    -19.271  0.0000E+00  0.0000E+00
    -19.263  0.0000E+00  0.0000E+00
    -19.255  0.0000E+00  0.0000E+00
    -19.247  0.0000E+00  0.0000E+00
    -19.238  0.0000E+00  0.0000E+00
    -19.230  0.0000E+00  0.0000E+00
    -19.222  0.0000E+00  0.0000E+00
    -19.214  0.0000E+00  0.0000E+00
    -19.206  0.0000E+00  0.0000E+00
    -19.198  0.0000E+00  0.0000E+00
    -19.190  0.0000E+00  0.0000E+00
    -19.182  0.0000E+00  0.0000E+00
    -19.173  0.0000E+00  0.0000E+00
    -19.165  0.0000E+00  0.0000E+00
    -19.157  0.0000E+00  0.0000E+00
    -19.149  0.0000E+00  0.0000E+00
    -19.141  0.0000E+00  0.0000E+00
    -19.133  0.0000E+00  0.0000E+00
    -19.125  0.0000E+00  0.0000E+00
    -19.117  0.0000E+00  0.0000E+00
    -19.108  0.0000E+00  0.0000E+00
    -19.100  0.0000E+00  0.0000E+00
    -19.092  0.0000E+00  0.0000E+00
    -19.084  0.0000E+00  0.0000E+00
    -19.076  0.0000E+00  0.0000E+00
    -19.068  0.0000E+00  0.0000E+00
    -19.060  0.0000E+00  0.0000E+00
    -19.051  0.0000E+00  0.0000E+00
    -19.043  0.0000E+00  0.0000E+00
    -19.035  0.0000E+00  0.0000E+00
    -19.027  0.0000E+00  0.0000E+00
    -19.019  0.0000E+00  0.0000E+00
    -19.011  0.0000E+00  0.0000E+00
    -19.003  0.0000E+00  0.0000E+00
    -18.995  0.0000E+00  0.0000E+00
    -18.986  0.0000E+00  0.0000E+00
    -18.978  0.0000E+00  0.0000E+00
    -18.970  0.0000E+00  0.0000E+00
    -18.962  0.0000E+00  0.0000E+00
    -18.954  0.0000E+00  0.0000E+00
    -18.946  0.0000E+00  0.0000E+00
    -18.938  0.0000E+00  0.0000E+00
    -18.930  0.0000E+00  0.0000E+00
    -18.921  0.0000E+00  0.0000E+00
    -18.913  0.0000E+00  0.0000E+00
    -18.905  0.0000E+00  0.0000E+00
    -18.897  0.0000E+00  0.0000E+00
    -18.889  0.0000E+00  0.0000E+00
    -18.881  0.0000E+00  0.0000E+00
    -18.873  0.0000E+00  0.0000E+00
    -18.865  0.0000E+00  0.0000E+00
    -18.856  0.0000E+00  0.0000E+00
    -18.848  0.0000E+00  0.0000E+00
    -18.840  0.0000E+00  0.0000E+00
    -18.832  0.0000E+00  0.0000E+00
    -18.824  0.0000E+00  0.0000E+00
    -18.816  0.0000E+00  0.0000E+00
    -18.808  0.0000E+00  0.0000E+00
    -18.799  0.0000E+00  0.0000E+00
    -18.791  0.0000E+00  0.0000E+00
    -18.783  0.0000E+00  0.0000E+00
    -18.775  0.0000E+00  0.0000E+00
    -18.767  0.0000E+00  0.0000E+00
    -18.759  0.0000E+00  0.0000E+00
    -18.751  0.0000E+00  0.0000E+00
    -18.743  0.0000E+00  0.0000E+00
    -18.734  0.0000E+00  0.0000E+00
    -18.726  0.0000E+00  0.0000E+00
    -18.718  0.0000E+00  0.0000E+00
    -18.710  0.0000E+00  0.0000E+00
    -18.702  0.0000E+00  0.0000E+00
    -18.694  0.0000E+00  0.0000E+00
    -18.686  0.0000E+00  0.0000E+00
    -18.678  0.0000E+00  0.0000E+00
    -18.669  0.0000E+00  0.0000E+00
    -18.661  0.0000E+00  0.0000E+00
    -18.653  0.0000E+00  0.0000E+00
    -18.645  0.0000E+00  0.0000E+00
    -18.637  0.0000E+00  0.0000E+00
    -18.629  0.0000E+00  0.0000E+00
    -18.621  0.0000E+00  0.0000E+00
    -18.613  0.0000E+00  0.0000E+00
    -18.604  0.0000E+00  0.0000E+00
    -18.596  0.0000E+00  0.0000E+00
    -18.588  0.0000E+00  0.0000E+00
    -18.580  0.0000E+00  0.0000E+00
    -18.572  0.0000E+00  0.0000E+00
    -18.564  0.0000E+00  0.0000E+00
    -18.556  0.0000E+00  0.0000E+00
    -18.548  0.0000E+00  0.0000E+00
    -18.539  0.0000E+00  0.0000E+00
    -18.531  0.0000E+00  0.0000E+00
    -18.523  0.0000E+00  0.0000E+00
    -18.515  0.0000E+00  0.0000E+00
    -18.507  0.0000E+00  0.0000E+00
    -18.499  0.0000E+00  0.0000E+00
    -18.491  0.0000E+00  0.0000E+00
    -18.482  0.0000E+00  0.0000E+00
    -18.474  0.0000E+00  0.0000E+00
    -18.466  0.0000E+00  0.0000E+00
    -18.458  0.0000E+00  0.0000E+00
    -18.450  0.0000E+00  0.0000E+00
    -18.442  0.0000E+00  0.0000E+00
    -18.434  0.0000E+00  0.0000E+00
    -18.426  0.0000E+00  0.0000E+00
    -18.417  0.0000E+00  0.0000E+00
    -18.409  0.0000E+00  0.0000E+00
    -18.401  0.0000E+00  0.0000E+00
    -18.393  0.0000E+00  0.0000E+00
    -18.385  0.0000E+00  0.0000E+00
    -18.377  0.0000E+00  0.0000E+00
    -18.369  0.0000E+00  0.0000E+00
    -18.361  0.0000E+00  0.0000E+00
    -18.352  0.0000E+00  0.0000E+00
    -18.344  0.0000E+00  0.0000E+00
    -18.336  0.0000E+00  0.0000E+00
    -18.328  0.0000E+00  0.0000E+00
    -18.320  0.0000E+00  0.0000E+00
    -18.312  0.0000E+00  0.0000E+00
    -18.304  0.0000E+00  0.0000E+00
    -18.296  0.0000E+00  0.0000E+00
    -18.287  0.0000E+00  0.0000E+00
    -18.279  0.0000E+00  0.0000E+00
    -18.271  0.0000E+00  0.0000E+00
    -18.263  0.0000E+00  0.0000E+00
    -18.255  0.0000E+00  0.0000E+00
    -18.247  0.0000E+00  0.0000E+00
    -18.239  0.0000E+00  0.0000E+00
    -18.231  0.0000E+00  0.0000E+00
    -18.222  0.0000E+00  0.0000E+00
    -18.214  0.0000E+00  0.0000E+00
    -18.206  0.0000E+00  0.0000E+00
    -18.198  0.0000E+00  0.0000E+00
    -18.190  0.0000E+00  0.0000E+00
    -18.182  0.0000E+00  0.0000E+00
    -18.174  0.0000E+00  0.0000E+00
    -18.165  0.0000E+00  0.0000E+00
    -18.157  0.0000E+00  0.0000E+00
    -18.149  0.0000E+00  0.0000E+00
    -18.141  0.0000E+00  0.0000E+00
    -18.133  0.0000E+00  0.0000E+00
    -18.125  0.0000E+00  0.0000E+00
    -18.117  0.0000E+00  0.0000E+00
    -18.109  0.0000E+00  0.0000E+00
    -18.100  0.0000E+00  0.0000E+00
    -18.092  0.0000E+00  0.0000E+00
    -18.084  0.0000E+00  0.0000E+00
    -18.076  0.0000E+00  0.0000E+00
    -18.068  0.0000E+00  0.0000E+00
    -18.060  0.0000E+00  0.0000E+00
    -18.052  0.0000E+00  0.0000E+00
    -18.044  0.0000E+00  0.0000E+00
    -18.035  0.0000E+00  0.0000E+00
    -18.027  0.0000E+00  0.0000E+00
    -18.019  0.0000E+00  0.0000E+00
    -18.011  0.3757E+01  0.2486E-01
    -18.003  0.3865E+01  0.5552E-01
    -17.995  0.4028E+01  0.8803E-01
    -17.987  0.3879E+01  0.1204E+00
    -17.979  0.4107E+01  0.1528E+00
    -17.970  0.4292E+01  0.1872E+00
    -17.962  0.4162E+01  0.2211E+00
    -17.954  0.4257E+01  0.2552E+00
    -17.946  0.4413E+01  0.2905E+00
    -17.938  0.4490E+01  0.3265E+00
    -17.930  0.4480E+01  0.3630E+00
    -17.922  0.4600E+01  0.3998E+00
    -17.914  0.4665E+01  0.4376E+00
    -17.905  0.4757E+01  0.4759E+00
    -17.897  0.4912E+01  0.5152E+00
    -17.889  0.4985E+01  0.5554E+00
    -17.881  0.5044E+01  0.5962E+00
    -17.873  0.5177E+01  0.6377E+00
    -17.865  0.5305E+01  0.6803E+00
    -17.857  0.5432E+01  0.7239E+00
    -17.848  0.5572E+01  0.7686E+00
    -17.840  0.5704E+01  0.8144E+00
    -17.832  0.5835E+01  0.8613E+00
    -17.824  0.5972E+01  0.9093E+00
    -17.816  0.6198E+01  0.9588E+00
    -17.808  0.6378E+01  0.1010E+01
    -17.800  0.6557E+01  0.1062E+01
    -17.792  0.6808E+01  0.1117E+01
    -17.783  0.6770E+01  0.1172E+01
    -17.775  0.7179E+01  0.1230E+01
    -17.767  0.7492E+01  0.1289E+01
    -17.759  0.7789E+01  0.1351E+01
    -17.751  0.8132E+01  0.1416E+01
    -17.743  0.8515E+01  0.1483E+01
    -17.735  0.8938E+01  0.1554E+01
    -17.727  0.9308E+01  0.1629E+01
    -17.718  0.9842E+01  0.1706E+01
    -17.710  0.1055E+02  0.1789E+01
    -17.702  0.1122E+02  0.1877E+01
    -17.694  0.1215E+02  0.1972E+01
    -17.686  0.1320E+02  0.2075E+01
    -17.678  0.1449E+02  0.2187E+01
    -17.670  0.1618E+02  0.2310E+01
    -17.662  0.1969E+02  0.2454E+01
    -17.653  0.2814E+02  0.2637E+01
    -17.645  0.2267E+02  0.2855E+01
    -17.637  0.2009E+02  0.3028E+01
    -17.629  0.1905E+02  0.3183E+01
    -17.621  0.1869E+02  0.3333E+01
    -17.613  0.1960E+02  0.3490E+01
    -17.605  0.2305E+02  0.3657E+01
    -17.596  0.2483E+02  0.3880E+01
    -17.588  0.0000E+00  0.4000E+01
    -17.580  0.0000E+00  0.4000E+01
    -17.572  0.0000E+00  0.4000E+01
    -17.564  0.0000E+00  0.4000E+01
    -17.556  0.0000E+00  0.4000E+01
    -17.548  0.0000E+00  0.4000E+01
    -17.540  0.0000E+00  0.4000E+01
    -17.531  0.0000E+00  0.4000E+01
    -17.523  0.0000E+00  0.4000E+01
    -17.515  0.0000E+00  0.4000E+01
    -17.507  0.0000E+00  0.4000E+01
    -17.499  0.0000E+00  0.4000E+01
    -17.491  0.0000E+00  0.4000E+01
    -17.483  0.0000E+00  0.4000E+01
    -17.475  0.0000E+00  0.4000E+01
    -17.466  0.0000E+00  0.4000E+01
    -17.458  0.0000E+00  0.4000E+01
    -17.450  0.0000E+00  0.4000E+01
    -17.442  0.0000E+00  0.4000E+01
    -17.434  0.0000E+00  0.4000E+01
    -17.426  0.0000E+00  0.4000E+01
    -17.418  0.0000E+00  0.4000E+01
    -17.410  0.0000E+00  0.4000E+01
    -17.401  0.0000E+00  0.4000E+01
    -17.393  0.0000E+00  0.4000E+01
    -17.385  0.0000E+00  0.4000E+01
    -17.377  0.0000E+00  0.4000E+01
    -17.369  0.0000E+00  0.4000E+01
    -17.361  0.0000E+00  0.4000E+01
    -17.353  0.0000E+00  0.4000E+01
    -17.345  0.0000E+00  0.4000E+01
    -17.336  0.0000E+00  0.4000E+01
    -17.328  0.0000E+00  0.4000E+01
    -17.320  0.0000E+00  0.4000E+01
    -17.312  0.0000E+00  0.4000E+01
    -17.304  0.0000E+00  0.4000E+01
    -17.296  0.0000E+00  0.4000E+01
    -17.288  0.0000E+00  0.4000E+01
    -17.279  0.0000E+00  0.4000E+01
    -17.271  0.0000E+00  0.4000E+01
    -17.263  0.0000E+00  0.4000E+01
    -17.255  0.0000E+00  0.4000E+01
    -17.247  0.0000E+00  0.4000E+01
    -17.239  0.0000E+00  0.4000E+01
    -17.231  0.0000E+00  0.4000E+01
    -17.223  0.0000E+00  0.4000E+01
    -17.214  0.0000E+00  0.4000E+01
    -17.206  0.0000E+00  0.4000E+01
    -17.198  0.0000E+00  0.4000E+01
    -17.190  0.0000E+00  0.4000E+01
    -17.182  0.0000E+00  0.4000E+01
    -17.174  0.0000E+00  0.4000E+01
    -17.166  0.0000E+00  0.4000E+01
    -17.158  0.0000E+00  0.4000E+01
    -17.149  0.0000E+00  0.4000E+01
    -17.141  0.0000E+00  0.4000E+01
    -17.133  0.0000E+00  0.4000E+01
    -17.125  0.0000E+00  0.4000E+01
    -17.117  0.0000E+00  0.4000E+01
    -17.109  0.0000E+00  0.4000E+01
    -17.101  0.0000E+00  0.4000E+01
    -17.093  0.0000E+00  0.4000E+01
    -17.084  0.0000E+00  0.4000E+01
    -17.076  0.0000E+00  0.4000E+01
    -17.068  0.0000E+00  0.4000E+01
    -17.060  0.0000E+00  0.4000E+01
    -17.052  0.0000E+00  0.4000E+01
    -17.044  0.0000E+00  0.4000E+01
    -17.036  0.0000E+00  0.4000E+01
    -17.028  0.0000E+00  0.4000E+01
    -17.019  0.0000E+00  0.4000E+01
    -17.011  0.0000E+00  0.4000E+01
    -17.003  0.0000E+00  0.4000E+01
    -16.995  0.0000E+00  0.4000E+01
    -16.987  0.0000E+00  0.4000E+01
    -16.979  0.0000E+00  0.4000E+01
    -16.971  0.0000E+00  0.4000E+01
    -16.962  0.0000E+00  0.4000E+01
    -16.954  0.0000E+00  0.4000E+01
    -16.946  0.0000E+00  0.4000E+01
    -16.938  0.0000E+00  0.4000E+01
    -16.930  0.0000E+00  0.4000E+01
    -16.922  0.0000E+00  0.4000E+01
    -16.914  0.0000E+00  0.4000E+01
    -16.906  0.0000E+00  0.4000E+01
    -16.897  0.0000E+00  0.4000E+01
    -16.889  0.0000E+00  0.4000E+01
    -16.881  0.0000E+00  0.4000E+01
    -16.873  0.0000E+00  0.4000E+01
    -16.865  0.0000E+00  0.4000E+01
    -16.857  0.0000E+00  0.4000E+01
    -16.849  0.0000E+00  0.4000E+01
    -16.841  0.0000E+00  0.4000E+01
    -16.832  0.0000E+00  0.4000E+01
    -16.824  0.0000E+00  0.4000E+01
    -16.816  0.0000E+00  0.4000E+01
    -16.808  0.0000E+00  0.4000E+01
    -16.800  0.0000E+00  0.4000E+01
    -16.792  0.0000E+00  0.4000E+01
    -16.784  0.0000E+00  0.4000E+01
    -16.776  0.0000E+00  0.4000E+01
    -16.767  0.0000E+00  0.4000E+01
    -16.759  0.0000E+00  0.4000E+01
    -16.751  0.0000E+00  0.4000E+01
    -16.743  0.0000E+00  0.4000E+01
    -16.735  0.0000E+00  0.4000E+01
    -16.727  0.0000E+00  0.4000E+01
    -16.719  0.0000E+00  0.4000E+01
    -16.711  0.0000E+00  0.4000E+01
    -16.702  0.0000E+00  0.4000E+01
    -16.694  0.0000E+00  0.4000E+01
    -16.686  0.0000E+00  0.4000E+01
    -16.678  0.0000E+00  0.4000E+01
    -16.670  0.0000E+00  0.4000E+01
    -16.662  0.0000E+00  0.4000E+01
    -16.654  0.0000E+00  0.4000E+01
    -16.645  0.0000E+00  0.4000E+01
    -16.637  0.0000E+00  0.4000E+01
    -16.629  0.0000E+00  0.4000E+01
    -16.621  0.0000E+00  0.4000E+01
    -16.613  0.0000E+00  0.4000E+01
    -16.605  0.0000E+00  0.4000E+01
    -16.597  0.0000E+00  0.4000E+01
    -16.589  0.0000E+00  0.4000E+01
    -16.580  0.0000E+00  0.4000E+01
    -16.572  0.0000E+00  0.4000E+01
    -16.564  0.0000E+00  0.4000E+01
    -16.556  0.0000E+00  0.4000E+01
    -16.548  0.0000E+00  0.4000E+01
    -16.540  0.0000E+00  0.4000E+01
    -16.532  0.0000E+00  0.4000E+01
    -16.524  0.0000E+00  0.4000E+01
    -16.515  0.0000E+00  0.4000E+01
    -16.507  0.0000E+00  0.4000E+01
    -16.499  0.0000E+00  0.4000E+01
    -16.491  0.0000E+00  0.4000E+01
    -16.483  0.0000E+00  0.4000E+01
    -16.475  0.0000E+00  0.4000E+01
    -16.467  0.0000E+00  0.4000E+01
    -16.459  0.0000E+00  0.4000E+01
    -16.450  0.0000E+00  0.4000E+01
    -16.442  0.0000E+00  0.4000E+01
    -16.434  0.0000E+00  0.4000E+01
    -16.426  0.0000E+00  0.4000E+01
    -16.418  0.0000E+00  0.4000E+01
    -16.410  0.0000E+00  0.4000E+01
    -16.402  0.0000E+00  0.4000E+01
    -16.393  0.0000E+00  0.4000E+01
    -16.385  0.0000E+00  0.4000E+01
    -16.377  0.0000E+00  0.4000E+01
    -16.369  0.0000E+00  0.4000E+01
    -16.361  0.0000E+00  0.4000E+01
    -16.353  0.0000E+00  0.4000E+01
    -16.345  0.0000E+00  0.4000E+01
    -16.337  0.0000E+00  0.4000E+01
    -16.328  0.0000E+00  0.4000E+01
    -16.320  0.0000E+00  0.4000E+01
    -16.312  0.0000E+00  0.4000E+01
    -16.304  0.0000E+00  0.4000E+01
    -16.296  0.0000E+00  0.4000E+01
    -16.288  0.0000E+00  0.4000E+01
    -16.280  0.0000E+00  0.4000E+01
    -16.272  0.0000E+00  0.4000E+01
    -16.263  0.0000E+00  0.4000E+01
    -16.255  0.0000E+00  0.4000E+01
    -16.247  0.0000E+00  0.4000E+01
    -16.239  0.0000E+00  0.4000E+01
    -16.231  0.0000E+00  0.4000E+01
    -16.223  0.0000E+00  0.4000E+01
    -16.215  0.0000E+00  0.4000E+01
    -16.207  0.0000E+00  0.4000E+01
    -16.198  0.0000E+00  0.4000E+01
    -16.190  0.0000E+00  0.4000E+01
    -16.182  0.0000E+00  0.4000E+01
    -16.174  0.0000E+00  0.4000E+01
    -16.166  0.0000E+00  0.4000E+01
    -16.158  0.0000E+00  0.4000E+01
    -16.150  0.0000E+00  0.4000E+01
    -16.142  0.0000E+00  0.4000E+01
    -16.133  0.0000E+00  0.4000E+01
    -16.125  0.0000E+00  0.4000E+01
    -16.117  0.0000E+00  0.4000E+01
    -16.109  0.0000E+00  0.4000E+01
    -16.101  0.0000E+00  0.4000E+01
    -16.093  0.0000E+00  0.4000E+01
    -16.085  0.0000E+00  0.4000E+01
    -16.076  0.0000E+00  0.4000E+01
    -16.068  0.0000E+00  0.4000E+01
    -16.060  0.0000E+00  0.4000E+01
    -16.052  0.0000E+00  0.4000E+01
    -16.044  0.0000E+00  0.4000E+01
    -16.036  0.0000E+00  0.4000E+01
    -16.028  0.0000E+00  0.4000E+01
    -16.020  0.0000E+00  0.4000E+01
    -16.011  0.0000E+00  0.4000E+01
    -16.003  0.0000E+00  0.4000E+01
    -15.995  0.0000E+00  0.4000E+01
    -15.987  0.0000E+00  0.4000E+01
    -15.979  0.0000E+00  0.4000E+01
    -15.971  0.0000E+00  0.4000E+01
    -15.963  0.0000E+00  0.4000E+01
    -15.955  0.0000E+00  0.4000E+01
    -15.946  0.0000E+00  0.4000E+01
    -15.938  0.0000E+00  0.4000E+01
    -15.930  0.0000E+00  0.4000E+01
    -15.922  0.0000E+00  0.4000E+01
    -15.914  0.0000E+00  0.4000E+01
    -15.906  0.0000E+00  0.4000E+01
    -15.898  0.0000E+00  0.4000E+01
    -15.890  0.0000E+00  0.4000E+01
    -15.881  0.0000E+00  0.4000E+01
    -15.873  0.0000E+00  0.4000E+01
    -15.865  0.0000E+00  0.4000E+01
    -15.857  0.0000E+00  0.4000E+01
    -15.849  0.0000E+00  0.4000E+01
    -15.841  0.0000E+00  0.4000E+01
    -15.833  0.0000E+00  0.4000E+01
    -15.825  0.0000E+00  0.4000E+01
    -15.816  0.0000E+00  0.4000E+01
    -15.808  0.0000E+00  0.4000E+01
    -15.800  0.0000E+00  0.4000E+01
    -15.792  0.0000E+00  0.4000E+01
    -15.784  0.0000E+00  0.4000E+01
    -15.776  0.0000E+00  0.4000E+01
    -15.768  0.0000E+00  0.4000E+01
    -15.759  0.0000E+00  0.4000E+01
    -15.751  0.0000E+00  0.4000E+01
    -15.743  0.0000E+00  0.4000E+01
    -15.735  0.0000E+00  0.4000E+01
    -15.727  0.0000E+00  0.4000E+01
    -15.719  0.0000E+00  0.4000E+01
    -15.711  0.0000E+00  0.4000E+01
    -15.703  0.0000E+00  0.4000E+01
    -15.694  0.0000E+00  0.4000E+01
    -15.686  0.0000E+00  0.4000E+01
    -15.678  0.0000E+00  0.4000E+01
    -15.670  0.0000E+00  0.4000E+01
    -15.662  0.0000E+00  0.4000E+01
    -15.654  0.0000E+00  0.4000E+01
    -15.646  0.0000E+00  0.4000E+01
    -15.638  0.0000E+00  0.4000E+01
    -15.629  0.0000E+00  0.4000E+01
    -15.621  0.0000E+00  0.4000E+01
    -15.613  0.0000E+00  0.4000E+01
    -15.605  0.0000E+00  0.4000E+01
    -15.597  0.0000E+00  0.4000E+01
    -15.589  0.0000E+00  0.4000E+01
    -15.581  0.0000E+00  0.4000E+01
    -15.573  0.0000E+00  0.4000E+01
    -15.564  0.0000E+00  0.4000E+01
    -15.556  0.0000E+00  0.4000E+01
    -15.548  0.0000E+00  0.4000E+01
    -15.540  0.0000E+00  0.4000E+01
    -15.532  0.0000E+00  0.4000E+01
    -15.524  0.0000E+00  0.4000E+01
    -15.516  0.0000E+00  0.4000E+01
    -15.507  0.0000E+00  0.4000E+01
    -15.499  0.0000E+00  0.4000E+01
    -15.491  0.0000E+00  0.4000E+01
    -15.483  0.0000E+00  0.4000E+01
    -15.475  0.0000E+00  0.4000E+01
    -15.467  0.0000E+00  0.4000E+01
    -15.459  0.0000E+00  0.4000E+01
    -15.451  0.0000E+00  0.4000E+01
    -15.442  0.0000E+00  0.4000E+01
    -15.434  0.0000E+00  0.4000E+01
    -15.426  0.0000E+00  0.4000E+01
    -15.418  0.0000E+00  0.4000E+01
    -15.410  0.0000E+00  0.4000E+01
    -15.402  0.0000E+00  0.4000E+01
    -15.394  0.0000E+00  0.4000E+01
    -15.386  0.0000E+00  0.4000E+01
    -15.377  0.0000E+00  0.4000E+01
    -15.369  0.0000E+00  0.4000E+01
    -15.361  0.0000E+00  0.4000E+01
    -15.353  0.0000E+00  0.4000E+01
    -15.345  0.0000E+00  0.4000E+01
    -15.337  0.0000E+00  0.4000E+01
    -15.329  0.0000E+00  0.4000E+01
    -15.321  0.0000E+00  0.4000E+01
    -15.312  0.0000E+00  0.4000E+01
    -15.304  0.0000E+00  0.4000E+01
    -15.296  0.0000E+00  0.4000E+01
    -15.288  0.0000E+00  0.4000E+01
    -15.280  0.0000E+00  0.4000E+01
    -15.272  0.0000E+00  0.4000E+01
    -15.264  0.0000E+00  0.4000E+01
    -15.256  0.0000E+00  0.4000E+01
    -15.247  0.0000E+00  0.4000E+01
    -15.239  0.0000E+00  0.4000E+01
    -15.231  0.0000E+00  0.4000E+01
    -15.223  0.0000E+00  0.4000E+01
    -15.215  0.0000E+00  0.4000E+01
    -15.207  0.0000E+00  0.4000E+01
    -15.199  0.0000E+00  0.4000E+01
    -15.190  0.0000E+00  0.4000E+01
    -15.182  0.0000E+00  0.4000E+01
    -15.174  0.0000E+00  0.4000E+01
    -15.166  0.0000E+00  0.4000E+01
    -15.158  0.0000E+00  0.4000E+01
    -15.150  0.0000E+00  0.4000E+01
    -15.142  0.0000E+00  0.4000E+01
    -15.134  0.0000E+00  0.4000E+01
    -15.125  0.0000E+00  0.4000E+01
    -15.117  0.0000E+00  0.4000E+01
    -15.109  0.0000E+00  0.4000E+01
    -15.101  0.0000E+00  0.4000E+01
    -15.093  0.0000E+00  0.4000E+01
    -15.085  0.0000E+00  0.4000E+01
    -15.077  0.0000E+00  0.4000E+01
    -15.069  0.0000E+00  0.4000E+01
    -15.060  0.0000E+00  0.4000E+01
    -15.052  0.0000E+00  0.4000E+01
    -15.044  0.0000E+00  0.4000E+01
    -15.036  0.0000E+00  0.4000E+01
    -15.028  0.0000E+00  0.4000E+01
    -15.020  0.0000E+00  0.4000E+01
    -15.012  0.0000E+00  0.4000E+01
    -15.004  0.0000E+00  0.4000E+01
    -14.995  0.0000E+00  0.4000E+01
    -14.987  0.0000E+00  0.4000E+01
    -14.979  0.0000E+00  0.4000E+01
    -14.971  0.0000E+00  0.4000E+01
    -14.963  0.0000E+00  0.4000E+01
    -14.955  0.0000E+00  0.4000E+01
    -14.947  0.0000E+00  0.4000E+01
    -14.939  0.0000E+00  0.4000E+01
    -14.930  0.0000E+00  0.4000E+01
    -14.922  0.0000E+00  0.4000E+01
    -14.914  0.0000E+00  0.4000E+01
    -14.906  0.0000E+00  0.4000E+01
    -14.898  0.0000E+00  0.4000E+01
    -14.890  0.0000E+00  0.4000E+01
    -14.882  0.0000E+00  0.4000E+01
    -14.873  0.0000E+00  0.4000E+01
    -14.865  0.0000E+00  0.4000E+01
    -14.857  0.0000E+00  0.4000E+01
    -14.849  0.0000E+00  0.4000E+01
    -14.841  0.0000E+00  0.4000E+01
    -14.833  0.0000E+00  0.4000E+01
    -14.825  0.0000E+00  0.4000E+01
    -14.817  0.0000E+00  0.4000E+01
    -14.808  0.0000E+00  0.4000E+01
    -14.800  0.0000E+00  0.4000E+01
    -14.792  0.0000E+00  0.4000E+01
    -14.784  0.0000E+00  0.4000E+01
    -14.776  0.0000E+00  0.4000E+01
    -14.768  0.0000E+00  0.4000E+01
    -14.760  0.0000E+00  0.4000E+01
    -14.752  0.0000E+00  0.4000E+01
    -14.743  0.0000E+00  0.4000E+01
    -14.735  0.0000E+00  0.4000E+01
    -14.727  0.0000E+00  0.4000E+01
    -14.719  0.0000E+00  0.4000E+01
    -14.711  0.0000E+00  0.4000E+01
    -14.703  0.0000E+00  0.4000E+01
    -14.695  0.0000E+00  0.4000E+01
    -14.687  0.0000E+00  0.4000E+01
    -14.678  0.0000E+00  0.4000E+01
    -14.670  0.0000E+00  0.4000E+01
    -14.662  0.0000E+00  0.4000E+01
    -14.654  0.0000E+00  0.4000E+01
    -14.646  0.0000E+00  0.4000E+01
    -14.638  0.0000E+00  0.4000E+01
    -14.630  0.0000E+00  0.4000E+01
    -14.622  0.0000E+00  0.4000E+01
    -14.613  0.0000E+00  0.4000E+01
    -14.605  0.0000E+00  0.4000E+01
    -14.597  0.0000E+00  0.4000E+01
    -14.589  0.0000E+00  0.4000E+01
    -14.581  0.0000E+00  0.4000E+01
    -14.573  0.0000E+00  0.4000E+01
    -14.565  0.0000E+00  0.4000E+01
    -14.556  0.0000E+00  0.4000E+01
    -14.548  0.0000E+00  0.4000E+01
    -14.540  0.0000E+00  0.4000E+01
    -14.532  0.0000E+00  0.4000E+01
    -14.524  0.0000E+00  0.4000E+01
    -14.516  0.0000E+00  0.4000E+01
    -14.508  0.0000E+00  0.4000E+01
    -14.500  0.0000E+00  0.4000E+01
    -14.491  0.0000E+00  0.4000E+01
    -14.483  0.0000E+00  0.4000E+01
    -14.475  0.0000E+00  0.4000E+01
    -14.467  0.0000E+00  0.4000E+01
    -14.459  0.0000E+00  0.4000E+01
    -14.451  0.0000E+00  0.4000E+01
    -14.443  0.0000E+00  0.4000E+01
    -14.435  0.0000E+00  0.4000E+01
    -14.426  0.0000E+00  0.4000E+01
    -14.418  0.0000E+00  0.4000E+01
    -14.410  0.0000E+00  0.4000E+01
    -14.402  0.0000E+00  0.4000E+01
    -14.394  0.0000E+00  0.4000E+01
    -14.386  0.0000E+00  0.4000E+01
    -14.378  0.0000E+00  0.4000E+01
    -14.370  0.0000E+00  0.4000E+01
    -14.361  0.0000E+00  0.4000E+01
    -14.353  0.0000E+00  0.4000E+01
    -14.345  0.0000E+00  0.4000E+01
    -14.337  0.0000E+00  0.4000E+01
    -14.329  0.0000E+00  0.4000E+01
    -14.321  0.0000E+00  0.4000E+01
    -14.313  0.0000E+00  0.4000E+01
    -14.304  0.0000E+00  0.4000E+01
    -14.296  0.0000E+00  0.4000E+01
    -14.288  0.0000E+00  0.4000E+01
    -14.280  0.0000E+00  0.4000E+01
    -14.272  0.0000E+00  0.4000E+01
    -14.264  0.0000E+00  0.4000E+01
    -14.256  0.0000E+00  0.4000E+01
    -14.248  0.0000E+00  0.4000E+01
    -14.239  0.0000E+00  0.4000E+01
    -14.231  0.0000E+00  0.4000E+01
    -14.223  0.0000E+00  0.4000E+01
    -14.215  0.0000E+00  0.4000E+01
    -14.207  0.0000E+00  0.4000E+01
    -14.199  0.0000E+00  0.4000E+01
    -14.191  0.0000E+00  0.4000E+01
    -14.183  0.0000E+00  0.4000E+01
    -14.174  0.0000E+00  0.4000E+01
    -14.166  0.0000E+00  0.4000E+01
    -14.158  0.0000E+00  0.4000E+01
    -14.150  0.0000E+00  0.4000E+01
    -14.142  0.0000E+00  0.4000E+01
    -14.134  0.0000E+00  0.4000E+01
    -14.126  0.0000E+00  0.4000E+01
    -14.118  0.0000E+00  0.4000E+01
    -14.109  0.0000E+00  0.4000E+01
    -14.101  0.0000E+00  0.4000E+01
    -14.093  0.0000E+00  0.4000E+01
    -14.085  0.0000E+00  0.4000E+01
    -14.077  0.0000E+00  0.4000E+01
    -14.069  0.0000E+00  0.4000E+01
    -14.061  0.0000E+00  0.4000E+01
    -14.053  0.0000E+00  0.4000E+01
    -14.044  0.0000E+00  0.4000E+01
    -14.036  0.0000E+00  0.4000E+01
    -14.028  0.0000E+00  0.4000E+01
    -14.020  0.0000E+00  0.4000E+01
    -14.012  0.0000E+00  0.4000E+01
    -14.004  0.0000E+00  0.4000E+01
    -13.996  0.0000E+00  0.4000E+01
    -13.987  0.0000E+00  0.4000E+01
    -13.979  0.0000E+00  0.4000E+01
    -13.971  0.0000E+00  0.4000E+01
    -13.963  0.0000E+00  0.4000E+01
    -13.955  0.0000E+00  0.4000E+01
    -13.947  0.0000E+00  0.4000E+01
    -13.939  0.0000E+00  0.4000E+01
    -13.931  0.0000E+00  0.4000E+01
    -13.922  0.0000E+00  0.4000E+01
    -13.914  0.0000E+00  0.4000E+01
    -13.906  0.0000E+00  0.4000E+01
    -13.898  0.0000E+00  0.4000E+01
    -13.890  0.0000E+00  0.4000E+01
    -13.882  0.0000E+00  0.4000E+01
    -13.874  0.0000E+00  0.4000E+01
    -13.866  0.0000E+00  0.4000E+01
    -13.857  0.0000E+00  0.4000E+01
    -13.849  0.0000E+00  0.4000E+01
    -13.841  0.0000E+00  0.4000E+01
    -13.833  0.0000E+00  0.4000E+01
    -13.825  0.0000E+00  0.4000E+01
    -13.817  0.0000E+00  0.4000E+01
    -13.809  0.0000E+00  0.4000E+01
    -13.801  0.0000E+00  0.4000E+01
    -13.792  0.0000E+00  0.4000E+01
    -13.784  0.0000E+00  0.4000E+01
    -13.776  0.0000E+00  0.4000E+01
    -13.768  0.0000E+00  0.4000E+01
    -13.760  0.0000E+00  0.4000E+01
    -13.752  0.0000E+00  0.4000E+01
    -13.744  0.0000E+00  0.4000E+01
    -13.736  0.0000E+00  0.4000E+01
    -13.727  0.0000E+00  0.4000E+01
    -13.719  0.0000E+00  0.4000E+01
    -13.711  0.0000E+00  0.4000E+01
    -13.703  0.0000E+00  0.4000E+01
    -13.695  0.0000E+00  0.4000E+01
    -13.687  0.0000E+00  0.4000E+01
    -13.679  0.0000E+00  0.4000E+01
    -13.670  0.0000E+00  0.4000E+01
    -13.662  0.0000E+00  0.4000E+01
    -13.654  0.0000E+00  0.4000E+01
    -13.646  0.0000E+00  0.4000E+01
    -13.638  0.0000E+00  0.4000E+01
    -13.630  0.0000E+00  0.4000E+01
    -13.622  0.0000E+00  0.4000E+01
    -13.614  0.0000E+00  0.4000E+01
    -13.605  0.0000E+00  0.4000E+01
    -13.597  0.0000E+00  0.4000E+01
    -13.589  0.0000E+00  0.4000E+01
    -13.581  0.0000E+00  0.4000E+01
    -13.573  0.0000E+00  0.4000E+01
    -13.565  0.0000E+00  0.4000E+01
    -13.557  0.0000E+00  0.4000E+01
    -13.549  0.0000E+00  0.4000E+01
    -13.540  0.0000E+00  0.4000E+01
    -13.532  0.0000E+00  0.4000E+01
    -13.524  0.0000E+00  0.4000E+01
    -13.516  0.0000E+00  0.4000E+01
    -13.508  0.0000E+00  0.4000E+01
    -13.500  0.0000E+00  0.4000E+01
    -13.492  0.0000E+00  0.4000E+01
    -13.484  0.0000E+00  0.4000E+01
    -13.475  0.0000E+00  0.4000E+01
    -13.467  0.0000E+00  0.4000E+01
    -13.459  0.0000E+00  0.4000E+01
    -13.451  0.0000E+00  0.4000E+01
    -13.443  0.0000E+00  0.4000E+01
    -13.435  0.0000E+00  0.4000E+01
    -13.427  0.0000E+00  0.4000E+01
    -13.419  0.0000E+00  0.4000E+01
    -13.410  0.0000E+00  0.4000E+01
    -13.402  0.0000E+00  0.4000E+01
    -13.394  0.0000E+00  0.4000E+01
    -13.386  0.0000E+00  0.4000E+01
    -13.378  0.0000E+00  0.4000E+01
    -13.370  0.0000E+00  0.4000E+01
    -13.362  0.0000E+00  0.4000E+01
    -13.353  0.0000E+00  0.4000E+01
    -13.345  0.0000E+00  0.4000E+01
    -13.337  0.0000E+00  0.4000E+01
    -13.329  0.0000E+00  0.4000E+01
    -13.321  0.0000E+00  0.4000E+01
    -13.313  0.0000E+00  0.4000E+01