       N       E                     dE             d eps       ncg     rms          rms(c)
DAV:   1     0.125366306905E+03    0.12537E+03   -0.56508E+03  3872   0.818E+02
DAV:   2     0.128023787805E+02   -0.11256E+03   -0.10641E+03  5704   0.135E+02
DAV:   3    -0.105552012531E+02   -0.23358E+02   -0.23112E+02  5088   0.693E+01
DAV:   4    -0.113227346430E+02   -0.76753E+00   -0.76602E+00  5008   0.164E+01
DAV:   5    -0.113346969124E+02   -0.11962E-01   -0.11961E-01  5264   0.201E+00
DAV:   6    -0.113350642829E+02   -0.36737E-03   -0.36735E-03  5416   0.363E-01
DAV:   7    -0.113350806919E+02   -0.16409E-04   -0.16409E-04  5864   0.678E-02
DAV:   8    -0.113350811555E+02   -0.46356E-06   -0.46357E-06  4648   0.958E-03
   1 F= -.11335081E+02 E0= -.11335081E+02  d E =0.000000E+00
