<?xml version="1.0" encoding="ISO-8859-1"?>
<modeling>
 <generator>
  <i name="program" type="string">vasp </i>
  <i name="version" type="string">5.4.1  </i>
  <i name="subversion" type="string">24Jun15 (build Jan 13 2016 15:26:25) complex                          parallel </i>
  <i name="platform" type="string">IFC91_ompi </i>
  <i name="date" type="string">2017 05 05 </i>
  <i name="time" type="string">22:15:10 </i>
 </generator>
 <incar>
  <i type="string" name="SYSTEM"> 2D Structure</i>
  <i type="string" name="PREC">normal</i>
  <i type="int" name="ICHARG">    11</i>
  <i type="int" name="NELMIN">     5</i>
  <i type="int" name="IBRION">     2</i>
  <i name="EDIFF">      0.00000100</i>
  <i name="EDIFFG">     -0.01000000</i>
  <i type="int" name="NSW">     0</i>
  <i type="int" name="ISIF">     2</i>
  <i name="ENCUT">    500.00000000</i>
  <i type="int" name="NEDOS">  3001</i>
  <i type="int" name="ISMEAR">    -5</i>
  <v type="int" name="KPOINT_BSE">    -1     0     0     0</v>
 </incar>
 <kpoints>
  <generation param="Gamma">
   <v type="int" name="divisions">      20       20        1 </v>
   <v name="usershift">      0.00000000       0.00000000       0.00000000 </v>
   <v name="genvec1">      0.05000000       0.00000000       0.00000000 </v>
   <v name="genvec2">      0.00000000       0.05000000       0.00000000 </v>
   <v name="genvec3">      0.00000000      -0.00000000       1.00000000 </v>
   <v name="shift">      0.00000000       0.00000000       0.00000000 </v>
  </generation>
  <varray name="kpointlist" >
   <v>       0.00000000       0.00000000       0.00000000 </v>
   <v>       0.05000000       0.00000000       0.00000000 </v>
   <v>       0.10000000       0.00000000       0.00000000 </v>
   <v>       0.15000000       0.00000000       0.00000000 </v>
   <v>       0.20000000       0.00000000       0.00000000 </v>
   <v>       0.25000000       0.00000000       0.00000000 </v>
   <v>       0.30000000       0.00000000       0.00000000 </v>
   <v>       0.35000000       0.00000000       0.00000000 </v>
   <v>       0.40000000       0.00000000       0.00000000 </v>
   <v>       0.45000000       0.00000000       0.00000000 </v>
   <v>       0.50000000       0.00000000       0.00000000 </v>
   <v>       0.00000000       0.05000000      -0.00000000 </v>
   <v>       0.05000000       0.05000000      -0.00000000 </v>
   <v>       0.10000000       0.05000000      -0.00000000 </v>
   <v>       0.15000000       0.05000000      -0.00000000 </v>
   <v>       0.20000000       0.05000000      -0.00000000 </v>
   <v>       0.25000000       0.05000000      -0.00000000 </v>
   <v>       0.30000000       0.05000000      -0.00000000 </v>
   <v>       0.35000000       0.05000000      -0.00000000 </v>
   <v>       0.40000000       0.05000000      -0.00000000 </v>
   <v>       0.45000000       0.05000000      -0.00000000 </v>
   <v>       0.50000000       0.05000000      -0.00000000 </v>
   <v>       0.00000000       0.10000000      -0.00000000 </v>
   <v>       0.05000000       0.10000000      -0.00000000 </v>
   <v>       0.10000000       0.10000000      -0.00000000 </v>
   <v>       0.15000000       0.10000000      -0.00000000 </v>
   <v>       0.20000000       0.10000000      -0.00000000 </v>
   <v>       0.25000000       0.10000000      -0.00000000 </v>
   <v>       0.30000000       0.10000000      -0.00000000 </v>
   <v>       0.35000000       0.10000000      -0.00000000 </v>
   <v>       0.40000000       0.10000000      -0.00000000 </v>
   <v>       0.45000000       0.10000000      -0.00000000 </v>
   <v>       0.50000000       0.10000000      -0.00000000 </v>
   <v>       0.00000000       0.15000000       0.00000000 </v>
   <v>       0.05000000       0.15000000       0.00000000 </v>
   <v>       0.10000000       0.15000000       0.00000000 </v>
   <v>       0.15000000       0.15000000       0.00000000 </v>
   <v>       0.20000000       0.15000000       0.00000000 </v>
   <v>       0.25000000       0.15000000       0.00000000 </v>
   <v>       0.30000000       0.15000000       0.00000000 </v>
   <v>       0.35000000       0.15000000       0.00000000 </v>
   <v>       0.40000000       0.15000000       0.00000000 </v>
   <v>       0.45000000       0.15000000       0.00000000 </v>
   <v>       0.50000000       0.15000000       0.00000000 </v>
   <v>       0.00000000       0.20000000      -0.00000000 </v>
   <v>       0.05000000       0.20000000      -0.00000000 </v>
   <v>       0.10000000       0.20000000      -0.00000000 </v>
   <v>       0.15000000       0.20000000      -0.00000000 </v>
   <v>       0.20000000       0.20000000      -0.00000000 </v>
   <v>       0.25000000       0.20000000      -0.00000000 </v>
   <v>       0.30000000       0.20000000      -0.00000000 </v>
   <v>       0.35000000       0.20000000      -0.00000000 </v>
   <v>       0.40000000       0.20000000      -0.00000000 </v>
   <v>       0.45000000       0.20000000      -0.00000000 </v>
   <v>       0.50000000       0.20000000      -0.00000000 </v>
   <v>       0.00000000       0.25000000       0.00000000 </v>
   <v>       0.05000000       0.25000000       0.00000000 </v>
   <v>       0.10000000       0.25000000       0.00000000 </v>
   <v>       0.15000000       0.25000000       0.00000000 </v>
   <v>       0.20000000       0.25000000       0.00000000 </v>
   <v>       0.25000000       0.25000000       0.00000000 </v>
   <v>       0.30000000       0.25000000       0.00000000 </v>
   <v>       0.35000000       0.25000000       0.00000000 </v>
   <v>       0.40000000       0.25000000       0.00000000 </v>
   <v>       0.45000000       0.25000000       0.00000000 </v>
   <v>       0.50000000       0.25000000       0.00000000 </v>
   <v>       0.00000000       0.30000000       0.00000000 </v>
   <v>       0.05000000       0.30000000       0.00000000 </v>
   <v>       0.10000000       0.30000000       0.00000000 </v>
   <v>       0.15000000       0.30000000       0.00000000 </v>
   <v>       0.20000000       0.30000000       0.00000000 </v>
   <v>       0.25000000       0.30000000       0.00000000 </v>
   <v>       0.30000000       0.30000000       0.00000000 </v>
   <v>       0.35000000       0.30000000       0.00000000 </v>
   <v>       0.40000000       0.30000000       0.00000000 </v>
   <v>       0.45000000       0.30000000       0.00000000 </v>
   <v>       0.50000000       0.30000000       0.00000000 </v>
   <v>       0.00000000       0.35000000       0.00000000 </v>
   <v>       0.05000000       0.35000000       0.00000000 </v>
   <v>       0.10000000       0.35000000       0.00000000 </v>
   <v>       0.15000000       0.35000000       0.00000000 </v>
   <v>       0.20000000       0.35000000       0.00000000 </v>
   <v>       0.25000000       0.35000000       0.00000000 </v>
   <v>       0.30000000       0.35000000       0.00000000 </v>
   <v>       0.35000000       0.35000000       0.00000000 </v>
   <v>       0.40000000       0.35000000       0.00000000 </v>
   <v>       0.45000000       0.35000000       0.00000000 </v>
   <v>       0.50000000       0.35000000       0.00000000 </v>
   <v>       0.00000000       0.40000000      -0.00000000 </v>
   <v>       0.05000000       0.40000000      -0.00000000 </v>
   <v>       0.10000000       0.40000000      -0.00000000 </v>
   <v>       0.15000000       0.40000000      -0.00000000 </v>
   <v>       0.20000000       0.40000000      -0.00000000 </v>
   <v>       0.25000000       0.40000000      -0.00000000 </v>
   <v>       0.30000000       0.40000000      -0.00000000 </v>
   <v>       0.35000000       0.40000000      -0.00000000 </v>
   <v>       0.40000000       0.40000000      -0.00000000 </v>
   <v>       0.45000000       0.40000000      -0.00000000 </v>
   <v>       0.50000000       0.40000000      -0.00000000 </v>
   <v>       0.00000000       0.45000000       0.00000000 </v>
   <v>       0.05000000       0.45000000       0.00000000 </v>
   <v>       0.10000000       0.45000000       0.00000000 </v>
   <v>       0.15000000       0.45000000       0.00000000 </v>
   <v>       0.20000000       0.45000000       0.00000000 </v>
   <v>       0.25000000       0.45000000       0.00000000 </v>
   <v>       0.30000000       0.45000000       0.00000000 </v>
   <v>       0.35000000       0.45000000       0.00000000 </v>
   <v>       0.40000000       0.45000000       0.00000000 </v>
   <v>       0.45000000       0.45000000       0.00000000 </v>
   <v>       0.50000000       0.45000000       0.00000000 </v>
   <v>       0.00000000       0.50000000       0.00000000 </v>
   <v>       0.05000000       0.50000000       0.00000000 </v>
   <v>       0.10000000       0.50000000       0.00000000 </v>
   <v>       0.15000000       0.50000000       0.00000000 </v>
   <v>       0.20000000       0.50000000       0.00000000 </v>
   <v>       0.25000000       0.50000000       0.00000000 </v>
   <v>       0.30000000       0.50000000       0.00000000 </v>
   <v>       0.35000000       0.50000000       0.00000000 </v>
   <v>       0.40000000       0.50000000       0.00000000 </v>
   <v>       0.45000000       0.50000000       0.00000000 </v>
   <v>       0.50000000       0.50000000       0.00000000 </v>
  </varray>
  <varray name="weights" >
   <v>       0.00250000 </v>
   <v>       0.00500000 </v>
   <v>       0.00500000 </v>
   <v>       0.00500000 </v>
   <v>       0.00500000 </v>
   <v>       0.00500000 </v>
   <v>       0.00500000 </v>
   <v>       0.00500000 </v>
   <v>       0.00500000 </v>
   <v>       0.00500000 </v>
   <v>       0.00250000 </v>
   <v>       0.00500000 </v>
   <v>       0.01000000 </v>
   <v>       0.01000000 </v>
   <v>       0.01000000 </v>
   <v>       0.01000000 </v>
   <v>       0.01000000 </v>
   <v>       0.01000000 </v>
   <v>       0.01000000 </v>
   <v>       0.01000000 </v>
   <v>       0.01000000 </v>
   <v>       0.00500000 </v>
   <v>       0.00500000 </v>
   <v>       0.01000000 </v>
   <v>       0.01000000 </v>
   <v>       0.01000000 </v>
   <v>       0.01000000 </v>
   <v>       0.01000000 </v>
   <v>       0.01000000 </v>
   <v>       0.01000000 </v>
   <v>       0.01000000 </v>
   <v>       0.01000000 </v>
   <v>       0.00500000 </v>
   <v>       0.00500000 </v>
   <v>       0.01000000 </v>
   <v>       0.01000000 </v>
   <v>       0.01000000 </v>
   <v>       0.01000000 </v>
   <v>       0.01000000 </v>
   <v>       0.01000000 </v>
   <v>       0.01000000 </v>
   <v>       0.01000000 </v>
   <v>       0.01000000 </v>
   <v>       0.00500000 </v>
   <v>       0.00500000 </v>
   <v>       0.01000000 </v>
   <v>       0.01000000 </v>
   <v>       0.01000000 </v>
   <v>       0.01000000 </v>
   <v>       0.01000000 </v>
   <v>       0.01000000 </v>
   <v>       0.01000000 </v>
   <v>       0.01000000 </v>
   <v>       0.01000000 </v>
   <v>       0.00500000 </v>
   <v>       0.00500000 </v>
   <v>       0.01000000 </v>
   <v>       0.01000000 </v>
   <v>       0.01000000 </v>
   <v>       0.01000000 </v>
   <v>       0.01000000 </v>
   <v>       0.01000000 </v>
   <v>       0.01000000 </v>
   <v>       0.01000000 </v>
   <v>       0.01000000 </v>
   <v>       0.00500000 </v>
   <v>       0.00500000 </v>
   <v>       0.01000000 </v>
   <v>       0.01000000 </v>
   <v>       0.01000000 </v>
   <v>       0.01000000 </v>
   <v>       0.01000000 </v>
   <v>       0.01000000 </v>
   <v>       0.01000000 </v>
   <v>       0.01000000 </v>
   <v>       0.01000000 </v>
   <v>       0.00500000 </v>
   <v>       0.00500000 </v>
   <v>       0.01000000 </v>
   <v>       0.01000000 </v>
   <v>       0.01000000 </v>
   <v>       0.01000000 </v>
   <v>       0.01000000 </v>
   <v>       0.01000000 </v>
   <v>       0.01000000 </v>
   <v>       0.01000000 </v>
   <v>       0.01000000 </v>
   <v>       0.00500000 </v>
   <v>       0.00500000 </v>
   <v>       0.01000000 </v>
   <v>       0.01000000 </v>
   <v>       0.01000000 </v>
   <v>       0.01000000 </v>
   <v>       0.01000000 </v>
   <v>       0.01000000 </v>
   <v>       0.01000000 </v>
   <v>       0.01000000 </v>
   <v>       0.01000000 </v>
   <v>       0.00500000 </v>
   <v>       0.00500000 </v>
   <v>       0.01000000 </v>
   <v>       0.01000000 </v>
   <v>       0.01000000 </v>
   <v>       0.01000000 </v>
   <v>       0.01000000 </v>
   <v>       0.01000000 </v>
   <v>       0.01000000 </v>
   <v>       0.01000000 </v>
   <v>       0.01000000 </v>
   <v>       0.00500000 </v>
   <v>       0.00250000 </v>
   <v>       0.00500000 </v>
   <v>       0.00500000 </v>
   <v>       0.00500000 </v>
   <v>       0.00500000 </v>
   <v>       0.00500000 </v>
   <v>       0.00500000 </v>
   <v>       0.00500000 </v>
   <v>       0.00500000 </v>
   <v>       0.00500000 </v>
   <v>       0.00250000 </v>
  </varray>
  <varray name="tetrahedronlist"  type="int" >
   <v type="int" >        2        1        1        2       13 </v>
   <v type="int" >        2        1        1       12       13 </v>
   <v type="int" >        2        1       12       12       13 </v>
   <v type="int" >        2        1        2        2       13 </v>
   <v type="int" >        2        1        2       13       13 </v>
   <v type="int" >        2        1       12       13       13 </v>
   <v type="int" >        2        2        2        3       14 </v>
   <v type="int" >        2        2        2       13       14 </v>
   <v type="int" >        2        2       13       13       14 </v>
   <v type="int" >        2        2        3        3       14 </v>
   <v type="int" >        2        2        3       14       14 </v>
   <v type="int" >        2        2       13       14       14 </v>
   <v type="int" >        2        3        3        4       15 </v>
   <v type="int" >        2        3        3       14       15 </v>
   <v type="int" >        2        3       14       14       15 </v>
   <v type="int" >        2        3        4        4       15 </v>
   <v type="int" >        2        3        4       15       15 </v>
   <v type="int" >        2        3       14       15       15 </v>
   <v type="int" >        2        4        4        5       16 </v>
   <v type="int" >        2        4        4       15       16 </v>
   <v type="int" >        2        4       15       15       16 </v>
   <v type="int" >        2        4        5        5       16 </v>
   <v type="int" >        2        4        5       16       16 </v>
   <v type="int" >        2        4       15       16       16 </v>
   <v type="int" >        2        5        5        6       17 </v>
   <v type="int" >        2        5        5       16       17 </v>
   <v type="int" >        2        5       16       16       17 </v>
   <v type="int" >        2        5        6        6       17 </v>
   <v type="int" >        2        5        6       17       17 </v>
   <v type="int" >        2        5       16       17       17 </v>
   <v type="int" >        2        6        6        7       18 </v>
   <v type="int" >        2        6        6       17       18 </v>
   <v type="int" >        2        6       17       17       18 </v>
   <v type="int" >        2        6        7        7       18 </v>
   <v type="int" >        2        6        7       18       18 </v>
   <v type="int" >        2        6       17       18       18 </v>
   <v type="int" >        2        7        7        8       19 </v>
   <v type="int" >        2        7        7       18       19 </v>
   <v type="int" >        2        7       18       18       19 </v>
   <v type="int" >        2        7        8        8       19 </v>
   <v type="int" >        2        7        8       19       19 </v>
   <v type="int" >        2        7       18       19       19 </v>
   <v type="int" >        2        8        8        9       20 </v>
   <v type="int" >        2        8        8       19       20 </v>
   <v type="int" >        2        8       19       19       20 </v>
   <v type="int" >        2        8        9        9       20 </v>
   <v type="int" >        2        8        9       20       20 </v>
   <v type="int" >        2        8       19       20       20 </v>
   <v type="int" >        2        9        9       10       21 </v>
   <v type="int" >        2        9        9       20       21 </v>
   <v type="int" >        2        9       20       20       21 </v>
   <v type="int" >        2        9       10       10       21 </v>
   <v type="int" >        2        9       10       21       21 </v>
   <v type="int" >        2        9       20       21       21 </v>
   <v type="int" >        2       10       10       11       22 </v>
   <v type="int" >        2       10       10       21       22 </v>
   <v type="int" >        2       10       21       21       22 </v>
   <v type="int" >        2       10       11       11       22 </v>
   <v type="int" >        2       10       11       22       22 </v>
   <v type="int" >        2       10       21       22       22 </v>
   <v type="int" >        2       10       11       11       21 </v>
   <v type="int" >        2       11       11       21       22 </v>
   <v type="int" >        2       11       21       22       22 </v>
   <v type="int" >        2       10       10       11       21 </v>
   <v type="int" >        2       10       11       21       21 </v>
   <v type="int" >        2       11       21       21       22 </v>
   <v type="int" >        2        9       10       10       20 </v>
   <v type="int" >        2       10       10       20       21 </v>
   <v type="int" >        2       10       20       21       21 </v>
   <v type="int" >        2        9        9       10       20 </v>
   <v type="int" >        2        9       10       20       20 </v>
   <v type="int" >        2       10       20       20       21 </v>
   <v type="int" >        2        8        9        9       19 </v>
   <v type="int" >        2        9        9       19       20 </v>
   <v type="int" >        2        9       19       20       20 </v>
   <v type="int" >        2        8        8        9       19 </v>
   <v type="int" >        2        8        9       19       19 </v>
   <v type="int" >        2        9       19       19       20 </v>
   <v type="int" >        2        7        8        8       18 </v>
   <v type="int" >        2        8        8       18       19 </v>
   <v type="int" >        2        8       18       19       19 </v>
   <v type="int" >        2        7        7        8       18 </v>
   <v type="int" >        2        7        8       18       18 </v>
   <v type="int" >        2        8       18       18       19 </v>
   <v type="int" >        2        6        7        7       17 </v>
   <v type="int" >        2        7        7       17       18 </v>
   <v type="int" >        2        7       17       18       18 </v>
   <v type="int" >        2        6        6        7       17 </v>
   <v type="int" >        2        6        7       17       17 </v>
   <v type="int" >        2        7       17       17       18 </v>
   <v type="int" >        2        5        6        6       16 </v>
   <v type="int" >        2        6        6       16       17 </v>
   <v type="int" >        2        6       16       17       17 </v>
   <v type="int" >        2        5        5        6       16 </v>
   <v type="int" >        2        5        6       16       16 </v>
   <v type="int" >        2        6       16       16       17 </v>
   <v type="int" >        2        4        5        5       15 </v>
   <v type="int" >        2        5        5       15       16 </v>
   <v type="int" >        2        5       15       16       16 </v>
   <v type="int" >        2        4        4        5       15 </v>
   <v type="int" >        2        4        5       15       15 </v>
   <v type="int" >        2        5       15       15       16 </v>
   <v type="int" >        2        3        4        4       14 </v>
   <v type="int" >        2        4        4       14       15 </v>
   <v type="int" >        2        4       14       15       15 </v>
   <v type="int" >        2        3        3        4       14 </v>
   <v type="int" >        2        3        4       14       14 </v>
   <v type="int" >        2        4       14       14       15 </v>
   <v type="int" >        2        2        3        3       13 </v>
   <v type="int" >        2        3        3       13       14 </v>
   <v type="int" >        2        3       13       14       14 </v>
   <v type="int" >        2        2        2        3       13 </v>
   <v type="int" >        2        2        3       13       13 </v>
   <v type="int" >        2        3       13       13       14 </v>
   <v type="int" >        2        1        2        2       12 </v>
   <v type="int" >        2        2        2       12       13 </v>
   <v type="int" >        2        2       12       13       13 </v>
   <v type="int" >        2        1        1        2       12 </v>
   <v type="int" >        2        1        2       12       12 </v>
   <v type="int" >        2        2       12       12       13 </v>
   <v type="int" >        2       12       12       13       24 </v>
   <v type="int" >        2       12       12       23       24 </v>
   <v type="int" >        2       12       23       23       24 </v>
   <v type="int" >        2       12       13       13       24 </v>
   <v type="int" >        2       12       13       24       24 </v>
   <v type="int" >        2       12       23       24       24 </v>
   <v type="int" >        2       13       13       14       25 </v>
   <v type="int" >        2       13       13       24       25 </v>
   <v type="int" >        2       13       24       24       25 </v>
   <v type="int" >        2       13       14       14       25 </v>
   <v type="int" >        2       13       14       25       25 </v>
   <v type="int" >        2       13       24       25       25 </v>
   <v type="int" >        2       14       14       15       26 </v>
   <v type="int" >        2       14       14       25       26 </v>
   <v type="int" >        2       14       25       25       26 </v>
   <v type="int" >        2       14       15       15       26 </v>
   <v type="int" >        2       14       15       26       26 </v>
   <v type="int" >        2       14       25       26       26 </v>
   <v type="int" >        2       15       15       16       27 </v>
   <v type="int" >        2       15       15       26       27 </v>
   <v type="int" >        2       15       26       26       27 </v>
   <v type="int" >        2       15       16       16       27 </v>
   <v type="int" >        2       15       16       27       27 </v>
   <v type="int" >        2       15       26       27       27 </v>
   <v type="int" >        2       16       16       17       28 </v>
   <v type="int" >        2       16       16       27       28 </v>
   <v type="int" >        2       16       27       27       28 </v>
   <v type="int" >        2       16       17       17       28 </v>
   <v type="int" >        2       16       17       28       28 </v>
   <v type="int" >        2       16       27       28       28 </v>
   <v type="int" >        2       17       17       18       29 </v>
   <v type="int" >        2       17       17       28       29 </v>
   <v type="int" >        2       17       28       28       29 </v>
   <v type="int" >        2       17       18       18       29 </v>
   <v type="int" >        2       17       18       29       29 </v>
   <v type="int" >        2       17       28       29       29 </v>
   <v type="int" >        2       18       18       19       30 </v>
   <v type="int" >        2       18       18       29       30 </v>
   <v type="int" >        2       18       29       29       30 </v>
   <v type="int" >        2       18       19       19       30 </v>
   <v type="int" >        2       18       19       30       30 </v>
   <v type="int" >        2       18       29       30       30 </v>
   <v type="int" >        2       19       19       20       31 </v>
   <v type="int" >        2       19       19       30       31 </v>
   <v type="int" >        2       19       30       30       31 </v>
   <v type="int" >        2       19       20       20       31 </v>
   <v type="int" >        2       19       20       31       31 </v>
   <v type="int" >        2       19       30       31       31 </v>
   <v type="int" >        2       20       20       21       32 </v>
   <v type="int" >        2       20       20       31       32 </v>
   <v type="int" >        2       20       31       31       32 </v>
   <v type="int" >        2       20       21       21       32 </v>
   <v type="int" >        2       20       21       32       32 </v>
   <v type="int" >        2       20       31       32       32 </v>
   <v type="int" >        2       21       21       22       33 </v>
   <v type="int" >        2       21       21       32       33 </v>
   <v type="int" >        2       21       32       32       33 </v>
   <v type="int" >        2       21       22       22       33 </v>
   <v type="int" >        2       21       22       33       33 </v>
   <v type="int" >        2       21       32       33       33 </v>
   <v type="int" >        2       21       22       22       32 </v>
   <v type="int" >        2       22       22       32       33 </v>
   <v type="int" >        2       22       32       33       33 </v>
   <v type="int" >        2       21       21       22       32 </v>
   <v type="int" >        2       21       22       32       32 </v>
   <v type="int" >        2       22       32       32       33 </v>
   <v type="int" >        2       20       21       21       31 </v>
   <v type="int" >        2       21       21       31       32 </v>
   <v type="int" >        2       21       31       32       32 </v>
   <v type="int" >        2       20       20       21       31 </v>
   <v type="int" >        2       20       21       31       31 </v>
   <v type="int" >        2       21       31       31       32 </v>
   <v type="int" >        2       19       20       20       30 </v>
   <v type="int" >        2       20       20       30       31 </v>
   <v type="int" >        2       20       30       31       31 </v>
   <v type="int" >        2       19       19       20       30 </v>
   <v type="int" >        2       19       20       30       30 </v>
   <v type="int" >        2       20       30       30       31 </v>
   <v type="int" >        2       18       19       19       29 </v>
   <v type="int" >        2       19       19       29       30 </v>
   <v type="int" >        2       19       29       30       30 </v>
   <v type="int" >        2       18       18       19       29 </v>
   <v type="int" >        2       18       19       29       29 </v>
   <v type="int" >        2       19       29       29       30 </v>
   <v type="int" >        2       17       18       18       28 </v>
   <v type="int" >        2       18       18       28       29 </v>
   <v type="int" >        2       18       28       29       29 </v>
   <v type="int" >        2       17       17       18       28 </v>
   <v type="int" >        2       17       18       28       28 </v>
   <v type="int" >        2       18       28       28       29 </v>
   <v type="int" >        2       16       17       17       27 </v>
   <v type="int" >        2       17       17       27       28 </v>
   <v type="int" >        2       17       27       28       28 </v>
   <v type="int" >        2       16       16       17       27 </v>
   <v type="int" >        2       16       17       27       27 </v>
   <v type="int" >        2       17       27       27       28 </v>
   <v type="int" >        2       15       16       16       26 </v>
   <v type="int" >        2       16       16       26       27 </v>
   <v type="int" >        2       16       26       27       27 </v>
   <v type="int" >        2       15       15       16       26 </v>
   <v type="int" >        2       15       16       26       26 </v>
   <v type="int" >        2       16       26       26       27 </v>
   <v type="int" >        2       14       15       15       25 </v>
   <v type="int" >        2       15       15       25       26 </v>
   <v type="int" >        2       15       25       26       26 </v>
   <v type="int" >        2       14       14       15       25 </v>
   <v type="int" >        2       14       15       25       25 </v>
   <v type="int" >        2       15       25       25       26 </v>
   <v type="int" >        2       13       14       14       24 </v>
   <v type="int" >        2       14       14       24       25 </v>
   <v type="int" >        2       14       24       25       25 </v>
   <v type="int" >        2       13       13       14       24 </v>
   <v type="int" >        2       13       14       24       24 </v>
   <v type="int" >        2       14       24       24       25 </v>
   <v type="int" >        2       12       13       13       23 </v>
   <v type="int" >        2       13       13       23       24 </v>
   <v type="int" >        2       13       23       24       24 </v>
   <v type="int" >        2       12       12       13       23 </v>
   <v type="int" >        2       12       13       23       23 </v>
   <v type="int" >        2       13       23       23       24 </v>
   <v type="int" >        2       23       23       24       35 </v>
   <v type="int" >        2       23       23       34       35 </v>
   <v type="int" >        2       23       34       34       35 </v>
   <v type="int" >        2       23       24       24       35 </v>
   <v type="int" >        2       23       24       35       35 </v>
   <v type="int" >        2       23       34       35       35 </v>
   <v type="int" >        2       24       24       25       36 </v>
   <v type="int" >        2       24       24       35       36 </v>
   <v type="int" >        2       24       35       35       36 </v>
   <v type="int" >        2       24       25       25       36 </v>
   <v type="int" >        2       24       25       36       36 </v>
   <v type="int" >        2       24       35       36       36 </v>
   <v type="int" >        2       25       25       26       37 </v>
   <v type="int" >        2       25       25       36       37 </v>
   <v type="int" >        2       25       36       36       37 </v>
   <v type="int" >        2       25       26       26       37 </v>
   <v type="int" >        2       25       26       37       37 </v>
   <v type="int" >        2       25       36       37       37 </v>
   <v type="int" >        2       26       26       27       38 </v>
   <v type="int" >        2       26       26       37       38 </v>
   <v type="int" >        2       26       37       37       38 </v>
   <v type="int" >        2       26       27       27       38 </v>
   <v type="int" >        2       26       27       38       38 </v>
   <v type="int" >        2       26       37       38       38 </v>
   <v type="int" >        2       27       27       28       39 </v>
   <v type="int" >        2       27       27       38       39 </v>
   <v type="int" >        2       27       38       38       39 </v>
   <v type="int" >        2       27       28       28       39 </v>
   <v type="int" >        2       27       28       39       39 </v>
   <v type="int" >        2       27       38       39       39 </v>
   <v type="int" >        2       28       28       29       40 </v>
   <v type="int" >        2       28       28       39       40 </v>
   <v type="int" >        2       28       39       39       40 </v>
   <v type="int" >        2       28       29       29       40 </v>
   <v type="int" >        2       28       29       40       40 </v>
   <v type="int" >        2       28       39       40       40 </v>
   <v type="int" >        2       29       29       30       41 </v>
   <v type="int" >        2       29       29       40       41 </v>
   <v type="int" >        2       29       40       40       41 </v>
   <v type="int" >        2       29       30       30       41 </v>
   <v type="int" >        2       29       30       41       41 </v>
   <v type="int" >        2       29       40       41       41 </v>
   <v type="int" >        2       30       30       31       42 </v>
   <v type="int" >        2       30       30       41       42 </v>
   <v type="int" >        2       30       41       41       42 </v>
   <v type="int" >        2       30       31       31       42 </v>
   <v type="int" >        2       30       31       42       42 </v>
   <v type="int" >        2       30       41       42       42 </v>
   <v type="int" >        2       31       31       32       43 </v>
   <v type="int" >        2       31       31       42       43 </v>
   <v type="int" >        2       31       42       42       43 </v>
   <v type="int" >        2       31       32       32       43 </v>
   <v type="int" >        2       31       32       43       43 </v>
   <v type="int" >        2       31       42       43       43 </v>
   <v type="int" >        2       32       32       33       44 </v>
   <v type="int" >        2       32       32       43       44 </v>
   <v type="int" >        2       32       43       43       44 </v>
   <v type="int" >        2       32       33       33       44 </v>
   <v type="int" >        2       32       33       44       44 </v>
   <v type="int" >        2       32       43       44       44 </v>
   <v type="int" >        2       32       33       33       43 </v>
   <v type="int" >        2       33       33       43       44 </v>
   <v type="int" >        2       33       43       44       44 </v>
   <v type="int" >        2       32       32       33       43 </v>
   <v type="int" >        2       32       33       43       43 </v>
   <v type="int" >        2       33       43       43       44 </v>
   <v type="int" >        2       31       32       32       42 </v>
   <v type="int" >        2       32       32       42       43 </v>
   <v type="int" >        2       32       42       43       43 </v>
   <v type="int" >        2       31       31       32       42 </v>
   <v type="int" >        2       31       32       42       42 </v>
   <v type="int" >        2       32       42       42       43 </v>
   <v type="int" >        2       30       31       31       41 </v>
   <v type="int" >        2       31       31       41       42 </v>
   <v type="int" >        2       31       41       42       42 </v>
   <v type="int" >        2       30       30       31       41 </v>
   <v type="int" >        2       30       31       41       41 </v>
   <v type="int" >        2       31       41       41       42 </v>
   <v type="int" >        2       29       30       30       40 </v>
   <v type="int" >        2       30       30       40       41 </v>
   <v type="int" >        2       30       40       41       41 </v>
   <v type="int" >        2       29       29       30       40 </v>
   <v type="int" >        2       29       30       40       40 </v>
   <v type="int" >        2       30       40       40       41 </v>
   <v type="int" >        2       28       29       29       39 </v>
   <v type="int" >        2       29       29       39       40 </v>
   <v type="int" >        2       29       39       40       40 </v>
   <v type="int" >        2       28       28       29       39 </v>
   <v type="int" >        2       28       29       39       39 </v>
   <v type="int" >        2       29       39       39       40 </v>
   <v type="int" >        2       27       28       28       38 </v>
   <v type="int" >        2       28       28       38       39 </v>
   <v type="int" >        2       28       38       39       39 </v>
   <v type="int" >        2       27       27       28       38 </v>
   <v type="int" >        2       27       28       38       38 </v>
   <v type="int" >        2       28       38       38       39 </v>
   <v type="int" >        2       26       27       27       37 </v>
   <v type="int" >        2       27       27       37       38 </v>
   <v type="int" >        2       27       37       38       38 </v>
   <v type="int" >        2       26       26       27       37 </v>
   <v type="int" >        2       26       27       37       37 </v>
   <v type="int" >        2       27       37       37       38 </v>
   <v type="int" >        2       25       26       26       36 </v>
   <v type="int" >        2       26       26       36       37 </v>
   <v type="int" >        2       26       36       37       37 </v>
   <v type="int" >        2       25       25       26       36 </v>
   <v type="int" >        2       25       26       36       36 </v>
   <v type="int" >        2       26       36       36       37 </v>
   <v type="int" >        2       24       25       25       35 </v>
   <v type="int" >        2       25       25       35       36 </v>
   <v type="int" >        2       25       35       36       36 </v>
   <v type="int" >        2       24       24       25       35 </v>
   <v type="int" >        2       24       25       35       35 </v>
   <v type="int" >        2       25       35       35       36 </v>
   <v type="int" >        2       23       24       24       34 </v>
   <v type="int" >        2       24       24       34       35 </v>
   <v type="int" >        2       24       34       35       35 </v>
   <v type="int" >        2       23       23       24       34 </v>
   <v type="int" >        2       23       24       34       34 </v>
   <v type="int" >        2       24       34       34       35 </v>
   <v type="int" >        2       34       34       35       46 </v>
   <v type="int" >        2       34       34       45       46 </v>
   <v type="int" >        2       34       45       45       46 </v>
   <v type="int" >        2       34       35       35       46 </v>
   <v type="int" >        2       34       35       46       46 </v>
   <v type="int" >        2       34       45       46       46 </v>
   <v type="int" >        2       35       35       36       47 </v>
   <v type="int" >        2       35       35       46       47 </v>
   <v type="int" >        2       35       46       46       47 </v>
   <v type="int" >        2       35       36       36       47 </v>
   <v type="int" >        2       35       36       47       47 </v>
   <v type="int" >        2       35       46       47       47 </v>
   <v type="int" >        2       36       36       37       48 </v>
   <v type="int" >        2       36       36       47       48 </v>
   <v type="int" >        2       36       47       47       48 </v>
   <v type="int" >        2       36       37       37       48 </v>
   <v type="int" >        2       36       37       48       48 </v>
   <v type="int" >        2       36       47       48       48 </v>
   <v type="int" >        2       37       37       38       49 </v>
   <v type="int" >        2       37       37       48       49 </v>
   <v type="int" >        2       37       48       48       49 </v>
   <v type="int" >        2       37       38       38       49 </v>
   <v type="int" >        2       37       38       49       49 </v>
   <v type="int" >        2       37       48       49       49 </v>
   <v type="int" >        2       38       38       39       50 </v>
   <v type="int" >        2       38       38       49       50 </v>
   <v type="int" >        2       38       49       49       50 </v>
   <v type="int" >        2       38       39       39       50 </v>
   <v type="int" >        2       38       39       50       50 </v>
   <v type="int" >        2       38       49       50       50 </v>
   <v type="int" >        2       39       39       40       51 </v>
   <v type="int" >        2       39       39       50       51 </v>
   <v type="int" >        2       39       50       50       51 </v>
   <v type="int" >        2       39       40       40       51 </v>
   <v type="int" >        2       39       40       51       51 </v>
   <v type="int" >        2       39       50       51       51 </v>
   <v type="int" >        2       40       40       41       52 </v>
   <v type="int" >        2       40       40       51       52 </v>
   <v type="int" >        2       40       51       51       52 </v>
   <v type="int" >        2       40       41       41       52 </v>
   <v type="int" >        2       40       41       52       52 </v>
   <v type="int" >        2       40       51       52       52 </v>
   <v type="int" >        2       41       41       42       53 </v>
   <v type="int" >        2       41       41       52       53 </v>
   <v type="int" >        2       41       52       52       53 </v>
   <v type="int" >        2       41       42       42       53 </v>
   <v type="int" >        2       41       42       53       53 </v>
   <v type="int" >        2       41       52       53       53 </v>
   <v type="int" >        2       42       42       43       54 </v>
   <v type="int" >        2       42       42       53       54 </v>
   <v type="int" >        2       42       53       53       54 </v>
   <v type="int" >        2       42       43       43       54 </v>
   <v type="int" >        2       42       43       54       54 </v>
   <v type="int" >        2       42       53       54       54 </v>
   <v type="int" >        2       43       43       44       55 </v>
   <v type="int" >        2       43       43       54       55 </v>
   <v type="int" >        2       43       54       54       55 </v>
   <v type="int" >        2       43       44       44       55 </v>
   <v type="int" >        2       43       44       55       55 </v>
   <v type="int" >        2       43       54       55       55 </v>
   <v type="int" >        2       43       44       44       54 </v>
   <v type="int" >        2       44       44       54       55 </v>
   <v type="int" >        2       44       54       55       55 </v>
   <v type="int" >        2       43       43       44       54 </v>
   <v type="int" >        2       43       44       54       54 </v>
   <v type="int" >        2       44       54       54       55 </v>
   <v type="int" >        2       42       43       43       53 </v>
   <v type="int" >        2       43       43       53       54 </v>
   <v type="int" >        2       43       53       54       54 </v>
   <v type="int" >        2       42       42       43       53 </v>
   <v type="int" >        2       42       43       53       53 </v>
   <v type="int" >        2       43       53       53       54 </v>
   <v type="int" >        2       41       42       42       52 </v>
   <v type="int" >        2       42       42       52       53 </v>
   <v type="int" >        2       42       52       53       53 </v>
   <v type="int" >        2       41       41       42       52 </v>
   <v type="int" >        2       41       42       52       52 </v>
   <v type="int" >        2       42       52       52       53 </v>
   <v type="int" >        2       40       41       41       51 </v>
   <v type="int" >        2       41       41       51       52 </v>
   <v type="int" >        2       41       51       52       52 </v>
   <v type="int" >        2       40       40       41       51 </v>
   <v type="int" >        2       40       41       51       51 </v>
   <v type="int" >        2       41       51       51       52 </v>
   <v type="int" >        2       39       40       40       50 </v>
   <v type="int" >        2       40       40       50       51 </v>
   <v type="int" >        2       40       50       51       51 </v>
   <v type="int" >        2       39       39       40       50 </v>
   <v type="int" >        2       39       40       50       50 </v>
   <v type="int" >        2       40       50       50       51 </v>
   <v type="int" >        2       38       39       39       49 </v>
   <v type="int" >        2       39       39       49       50 </v>
   <v type="int" >        2       39       49       50       50 </v>
   <v type="int" >        2       38       38       39       49 </v>
   <v type="int" >        2       38       39       49       49 </v>
   <v type="int" >        2       39       49       49       50 </v>
   <v type="int" >        2       37       38       38       48 </v>
   <v type="int" >        2       38       38       48       49 </v>
   <v type="int" >        2       38       48       49       49 </v>
   <v type="int" >        2       37       37       38       48 </v>
   <v type="int" >        2       37       38       48       48 </v>
   <v type="int" >        2       38       48       48       49 </v>
   <v type="int" >        2       36       37       37       47 </v>
   <v type="int" >        2       37       37       47       48 </v>
   <v type="int" >        2       37       47       48       48 </v>
   <v type="int" >        2       36       36       37       47 </v>
   <v type="int" >        2       36       37       47       47 </v>
   <v type="int" >        2       37       47       47       48 </v>
   <v type="int" >        2       35       36       36       46 </v>
   <v type="int" >        2       36       36       46       47 </v>
   <v type="int" >        2       36       46       47       47 </v>
   <v type="int" >        2       35       35       36       46 </v>
   <v type="int" >        2       35       36       46       46 </v>
   <v type="int" >        2       36       46       46       47 </v>
   <v type="int" >        2       34       35       35       45 </v>
   <v type="int" >        2       35       35       45       46 </v>
   <v type="int" >        2       35       45       46       46 </v>
   <v type="int" >        2       34       34       35       45 </v>
   <v type="int" >        2       34       35       45       45 </v>
   <v type="int" >        2       35       45       45       46 </v>
   <v type="int" >        2       45       45       46       57 </v>
   <v type="int" >        2       45       45       56       57 </v>
   <v type="int" >        2       45       56       56       57 </v>
   <v type="int" >        2       45       46       46       57 </v>
   <v type="int" >        2       45       46       57       57 </v>
   <v type="int" >        2       45       56       57       57 </v>
   <v type="int" >        2       46       46       47       58 </v>
   <v type="int" >        2       46       46       57       58 </v>
   <v type="int" >        2       46       57       57       58 </v>
   <v type="int" >        2       46       47       47       58 </v>
   <v type="int" >        2       46       47       58       58 </v>
   <v type="int" >        2       46       57       58       58 </v>
   <v type="int" >        2       47       47       48       59 </v>
   <v type="int" >        2       47       47       58       59 </v>
   <v type="int" >        2       47       58       58       59 </v>
   <v type="int" >        2       47       48       48       59 </v>
   <v type="int" >        2       47       48       59       59 </v>
   <v type="int" >        2       47       58       59       59 </v>
   <v type="int" >        2       48       48       49       60 </v>
   <v type="int" >        2       48       48       59       60 </v>
   <v type="int" >        2       48       59       59       60 </v>
   <v type="int" >        2       48       49       49       60 </v>
   <v type="int" >        2       48       49       60       60 </v>
   <v type="int" >        2       48       59       60       60 </v>
   <v type="int" >        2       49       49       50       61 </v>
   <v type="int" >        2       49       49       60       61 </v>
   <v type="int" >        2       49       60       60       61 </v>
   <v type="int" >        2       49       50       50       61 </v>
   <v type="int" >        2       49       50       61       61 </v>
   <v type="int" >        2       49       60       61       61 </v>
   <v type="int" >        2       50       50       51       62 </v>
   <v type="int" >        2       50       50       61       62 </v>
   <v type="int" >        2       50       61       61       62 </v>
   <v type="int" >        2       50       51       51       62 </v>
   <v type="int" >        2       50       51       62       62 </v>
   <v type="int" >        2       50       61       62       62 </v>
   <v type="int" >        2       51       51       52       63 </v>
   <v type="int" >        2       51       51       62       63 </v>
   <v type="int" >        2       51       62       62       63 </v>
   <v type="int" >        2       51       52       52       63 </v>
   <v type="int" >        2       51       52       63       63 </v>
   <v type="int" >        2       51       62       63       63 </v>
   <v type="int" >        2       52       52       53       64 </v>
   <v type="int" >        2       52       52       63       64 </v>
   <v type="int" >        2       52       63       63       64 </v>
   <v type="int" >        2       52       53       53       64 </v>
   <v type="int" >        2       52       53       64       64 </v>
   <v type="int" >        2       52       63       64       64 </v>
   <v type="int" >        2       53       53       54       65 </v>
   <v type="int" >        2       53       53       64       65 </v>
   <v type="int" >        2       53       64       64       65 </v>
   <v type="int" >        2       53       54       54       65 </v>
   <v type="int" >        2       53       54       65       65 </v>
   <v type="int" >        2       53       64       65       65 </v>
   <v type="int" >        2       54       54       55       66 </v>
   <v type="int" >        2       54       54       65       66 </v>
   <v type="int" >        2       54       65       65       66 </v>
   <v type="int" >        2       54       55       55       66 </v>
   <v type="int" >        2       54       55       66       66 </v>
   <v type="int" >        2       54       65       66       66 </v>
   <v type="int" >        2       54       55       55       65 </v>
   <v type="int" >        2       55       55       65       66 </v>
   <v type="int" >        2       55       65       66       66 </v>
   <v type="int" >        2       54       54       55       65 </v>
   <v type="int" >        2       54       55       65       65 </v>
   <v type="int" >        2       55       65       65       66 </v>
   <v type="int" >        2       53       54       54       64 </v>
   <v type="int" >        2       54       54       64       65 </v>
   <v type="int" >        2       54       64       65       65 </v>
   <v type="int" >        2       53       53       54       64 </v>
   <v type="int" >        2       53       54       64       64 </v>
   <v type="int" >        2       54       64       64       65 </v>
   <v type="int" >        2       52       53       53       63 </v>
   <v type="int" >        2       53       53       63       64 </v>
   <v type="int" >        2       53       63       64       64 </v>
   <v type="int" >        2       52       52       53       63 </v>
   <v type="int" >        2       52       53       63       63 </v>
   <v type="int" >        2       53       63       63       64 </v>
   <v type="int" >        2       51       52       52       62 </v>
   <v type="int" >        2       52       52       62       63 </v>
   <v type="int" >        2       52       62       63       63 </v>
   <v type="int" >        2       51       51       52       62 </v>
   <v type="int" >        2       51       52       62       62 </v>
   <v type="int" >        2       52       62       62       63 </v>
   <v type="int" >        2       50       51       51       61 </v>
   <v type="int" >        2       51       51       61       62 </v>
   <v type="int" >        2       51       61       62       62 </v>
   <v type="int" >        2       50       50       51       61 </v>
   <v type="int" >        2       50       51       61       61 </v>
   <v type="int" >        2       51       61       61       62 </v>
   <v type="int" >        2       49       50       50       60 </v>
   <v type="int" >        2       50       50       60       61 </v>
   <v type="int" >        2       50       60       61       61 </v>
   <v type="int" >        2       49       49       50       60 </v>
   <v type="int" >        2       49       50       60       60 </v>
   <v type="int" >        2       50       60       60       61 </v>
   <v type="int" >        2       48       49       49       59 </v>
   <v type="int" >        2       49       49       59       60 </v>
   <v type="int" >        2       49       59       60       60 </v>
   <v type="int" >        2       48       48       49       59 </v>
   <v type="int" >        2       48       49       59       59 </v>
   <v type="int" >        2       49       59       59       60 </v>
   <v type="int" >        2       47       48       48       58 </v>
   <v type="int" >        2       48       48       58       59 </v>
   <v type="int" >        2       48       58       59       59 </v>
   <v type="int" >        2       47       47       48       58 </v>
   <v type="int" >        2       47       48       58       58 </v>
   <v type="int" >        2       48       58       58       59 </v>
   <v type="int" >        2       46       47       47       57 </v>
   <v type="int" >        2       47       47       57       58 </v>
   <v type="int" >        2       47       57       58       58 </v>
   <v type="int" >        2       46       46       47       57 </v>
   <v type="int" >        2       46       47       57       57 </v>
   <v type="int" >        2       47       57       57       58 </v>
   <v type="int" >        2       45       46       46       56 </v>
   <v type="int" >        2       46       46       56       57 </v>
   <v type="int" >        2       46       56       57       57 </v>
   <v type="int" >        2       45       45       46       56 </v>
   <v type="int" >        2       45       46       56       56 </v>
   <v type="int" >        2       46       56       56       57 </v>
   <v type="int" >        2       56       56       57       68 </v>
   <v type="int" >        2       56       56       67       68 </v>
   <v type="int" >        2       56       67       67       68 </v>
   <v type="int" >        2       56       57       57       68 </v>
   <v type="int" >        2       56       57       68       68 </v>
   <v type="int" >        2       56       67       68       68 </v>
   <v type="int" >        2       57       57       58       69 </v>
   <v type="int" >        2       57       57       68       69 </v>
   <v type="int" >        2       57       68       68       69 </v>
   <v type="int" >        2       57       58       58       69 </v>
   <v type="int" >        2       57       58       69       69 </v>
   <v type="int" >        2       57       68       69       69 </v>
   <v type="int" >        2       58       58       59       70 </v>
   <v type="int" >        2       58       58       69       70 </v>
   <v type="int" >        2       58       69       69       70 </v>
   <v type="int" >        2       58       59       59       70 </v>
   <v type="int" >        2       58       59       70       70 </v>
   <v type="int" >        2       58       69       70       70 </v>
   <v type="int" >        2       59       59       60       71 </v>
   <v type="int" >        2       59       59       70       71 </v>
   <v type="int" >        2       59       70       70       71 </v>
   <v type="int" >        2       59       60       60       71 </v>
   <v type="int" >        2       59       60       71       71 </v>
   <v type="int" >        2       59       70       71       71 </v>
   <v type="int" >        2       60       60       61       72 </v>
   <v type="int" >        2       60       60       71       72 </v>
   <v type="int" >        2       60       71       71       72 </v>
   <v type="int" >        2       60       61       61       72 </v>
   <v type="int" >        2       60       61       72       72 </v>
   <v type="int" >        2       60       71       72       72 </v>
   <v type="int" >        2       61       61       62       73 </v>
   <v type="int" >        2       61       61       72       73 </v>
   <v type="int" >        2       61       72       72       73 </v>
   <v type="int" >        2       61       62       62       73 </v>
   <v type="int" >        2       61       62       73       73 </v>
   <v type="int" >        2       61       72       73       73 </v>
   <v type="int" >        2       62       62       63       74 </v>
   <v type="int" >        2       62       62       73       74 </v>
   <v type="int" >        2       62       73       73       74 </v>
   <v type="int" >        2       62       63       63       74 </v>
   <v type="int" >        2       62       63       74       74 </v>
   <v type="int" >        2       62       73       74       74 </v>
   <v type="int" >        2       63       63       64       75 </v>
   <v type="int" >        2       63       63       74       75 </v>
   <v type="int" >        2       63       74       74       75 </v>
   <v type="int" >        2       63       64       64       75 </v>
   <v type="int" >        2       63       64       75       75 </v>
   <v type="int" >        2       63       74       75       75 </v>
   <v type="int" >        2       64       64       65       76 </v>
   <v type="int" >        2       64       64       75       76 </v>
   <v type="int" >        2       64       75       75       76 </v>
   <v type="int" >        2       64       65       65       76 </v>
   <v type="int" >        2       64       65       76       76 </v>
   <v type="int" >        2       64       75       76       76 </v>
   <v type="int" >        2       65       65       66       77 </v>
   <v type="int" >        2       65       65       76       77 </v>
   <v type="int" >        2       65       76       76       77 </v>
   <v type="int" >        2       65       66       66       77 </v>
   <v type="int" >        2       65       66       77       77 </v>
   <v type="int" >        2       65       76       77       77 </v>
   <v type="int" >        2       65       66       66       76 </v>
   <v type="int" >        2       66       66       76       77 </v>
   <v type="int" >        2       66       76       77       77 </v>
   <v type="int" >        2       65       65       66       76 </v>
   <v type="int" >        2       65       66       76       76 </v>
   <v type="int" >        2       66       76       76       77 </v>
   <v type="int" >        2       64       65       65       75 </v>
   <v type="int" >        2       65       65       75       76 </v>
   <v type="int" >        2       65       75       76       76 </v>
   <v type="int" >        2       64       64       65       75 </v>
   <v type="int" >        2       64       65       75       75 </v>
   <v type="int" >        2       65       75       75       76 </v>
   <v type="int" >        2       63       64       64       74 </v>
   <v type="int" >        2       64       64       74       75 </v>
   <v type="int" >        2       64       74       75       75 </v>
   <v type="int" >        2       63       63       64       74 </v>
   <v type="int" >        2       63       64       74       74 </v>
   <v type="int" >        2       64       74       74       75 </v>
   <v type="int" >        2       62       63       63       73 </v>
   <v type="int" >        2       63       63       73       74 </v>
   <v type="int" >        2       63       73       74       74 </v>
   <v type="int" >        2       62       62       63       73 </v>
   <v type="int" >        2       62       63       73       73 </v>
   <v type="int" >        2       63       73       73       74 </v>
   <v type="int" >        2       61       62       62       72 </v>
   <v type="int" >        2       62       62       72       73 </v>
   <v type="int" >        2       62       72       73       73 </v>
   <v type="int" >        2       61       61       62       72 </v>
   <v type="int" >        2       61       62       72       72 </v>
   <v type="int" >        2       62       72       72       73 </v>
   <v type="int" >        2       60       61       61       71 </v>
   <v type="int" >        2       61       61       71       72 </v>
   <v type="int" >        2       61       71       72       72 </v>
   <v type="int" >        2       60       60       61       71 </v>
   <v type="int" >        2       60       61       71       71 </v>
   <v type="int" >        2       61       71       71       72 </v>
   <v type="int" >        2       59       60       60       70 </v>
   <v type="int" >        2       60       60       70       71 </v>
   <v type="int" >        2       60       70       71       71 </v>
   <v type="int" >        2       59       59       60       70 </v>
   <v type="int" >        2       59       60       70       70 </v>
   <v type="int" >        2       60       70       70       71 </v>
   <v type="int" >        2       58       59       59       69 </v>
   <v type="int" >        2       59       59       69       70 </v>
   <v type="int" >        2       59       69       70       70 </v>
   <v type="int" >        2       58       58       59       69 </v>
   <v type="int" >        2       58       59       69       69 </v>
   <v type="int" >        2       59       69       69       70 </v>
   <v type="int" >        2       57       58       58       68 </v>
   <v type="int" >        2       58       58       68       69 </v>
   <v type="int" >        2       58       68       69       69 </v>
   <v type="int" >        2       57       57       58       68 </v>
   <v type="int" >        2       57       58       68       68 </v>
   <v type="int" >        2       58       68       68       69 </v>
   <v type="int" >        2       56       57       57       67 </v>
   <v type="int" >        2       57       57       67       68 </v>
   <v type="int" >        2       57       67       68       68 </v>
   <v type="int" >        2       56       56       57       67 </v>
   <v type="int" >        2       56       57       67       67 </v>
   <v type="int" >        2       57       67       67       68 </v>
   <v type="int" >        2       67       67       68       79 </v>
   <v type="int" >        2       67       67       78       79 </v>
   <v type="int" >        2       67       78       78       79 </v>
   <v type="int" >        2       67       68       68       79 </v>
   <v type="int" >        2       67       68       79       79 </v>
   <v type="int" >        2       67       78       79       79 </v>
   <v type="int" >        2       68       68       69       80 </v>
   <v type="int" >        2       68       68       79       80 </v>
   <v type="int" >        2       68       79       79       80 </v>
   <v type="int" >        2       68       69       69       80 </v>
   <v type="int" >        2       68       69       80       80 </v>
   <v type="int" >        2       68       79       80       80 </v>
   <v type="int" >        2       69       69       70       81 </v>
   <v type="int" >        2       69       69       80       81 </v>
   <v type="int" >        2       69       80       80       81 </v>
   <v type="int" >        2       69       70       70       81 </v>
   <v type="int" >        2       69       70       81       81 </v>
   <v type="int" >        2       69       80       81       81 </v>
   <v type="int" >        2       70       70       71       82 </v>
   <v type="int" >        2       70       70       81       82 </v>
   <v type="int" >        2       70       81       81       82 </v>
   <v type="int" >        2       70       71       71       82 </v>
   <v type="int" >        2       70       71       82       82 </v>
   <v type="int" >        2       70       81       82       82 </v>
   <v type="int" >        2       71       71       72       83 </v>
   <v type="int" >        2       71       71       82       83 </v>
   <v type="int" >        2       71       82       82       83 </v>
   <v type="int" >        2       71       72       72       83 </v>
   <v type="int" >        2       71       72       83       83 </v>
   <v type="int" >        2       71       82       83       83 </v>
   <v type="int" >        2       72       72       73       84 </v>
   <v type="int" >        2       72       72       83       84 </v>
   <v type="int" >        2       72       83       83       84 </v>
   <v type="int" >        2       72       73       73       84 </v>
   <v type="int" >        2       72       73       84       84 </v>
   <v type="int" >        2       72       83       84       84 </v>
   <v type="int" >        2       73       73       74       85 </v>
   <v type="int" >        2       73       73       84       85 </v>
   <v type="int" >        2       73       84       84       85 </v>
   <v type="int" >        2       73       74       74       85 </v>
   <v type="int" >        2       73       74       85       85 </v>
   <v type="int" >        2       73       84       85       85 </v>
   <v type="int" >        2       74       74       75       86 </v>
   <v type="int" >        2       74       74       85       86 </v>
   <v type="int" >        2       74       85       85       86 </v>
   <v type="int" >        2       74       75       75       86 </v>
   <v type="int" >        2       74       75       86       86 </v>
   <v type="int" >        2       74       85       86       86 </v>
   <v type="int" >        2       75       75       76       87 </v>
   <v type="int" >        2       75       75       86       87 </v>
   <v type="int" >        2       75       86       86       87 </v>
   <v type="int" >        2       75       76       76       87 </v>
   <v type="int" >        2       75       76       87       87 </v>
   <v type="int" >        2       75       86       87       87 </v>
   <v type="int" >        2       76       76       77       88 </v>
   <v type="int" >        2       76       76       87       88 </v>
   <v type="int" >        2       76       87       87       88 </v>
   <v type="int" >        2       76       77       77       88 </v>
   <v type="int" >        2       76       77       88       88 </v>
   <v type="int" >        2       76       87       88       88 </v>
   <v type="int" >        2       76       77       77       87 </v>
   <v type="int" >        2       77       77       87       88 </v>
   <v type="int" >        2       77       87       88       88 </v>
   <v type="int" >        2       76       76       77       87 </v>
   <v type="int" >        2       76       77       87       87 </v>
   <v type="int" >        2       77       87       87       88 </v>
   <v type="int" >        2       75       76       76       86 </v>
   <v type="int" >        2       76       76       86       87 </v>
   <v type="int" >        2       76       86       87       87 </v>
   <v type="int" >        2       75       75       76       86 </v>
   <v type="int" >        2       75       76       86       86 </v>
   <v type="int" >        2       76       86       86       87 </v>
   <v type="int" >        2       74       75       75       85 </v>
   <v type="int" >        2       75       75       85       86 </v>
   <v type="int" >        2       75       85       86       86 </v>
   <v type="int" >        2       74       74       75       85 </v>
   <v type="int" >        2       74       75       85       85 </v>
   <v type="int" >        2       75       85       85       86 </v>
   <v type="int" >        2       73       74       74       84 </v>
   <v type="int" >        2       74       74       84       85 </v>
   <v type="int" >        2       74       84       85       85 </v>
   <v type="int" >        2       73       73       74       84 </v>
   <v type="int" >        2       73       74       84       84 </v>
   <v type="int" >        2       74       84       84       85 </v>
   <v type="int" >        2       72       73       73       83 </v>
   <v type="int" >        2       73       73       83       84 </v>
   <v type="int" >        2       73       83       84       84 </v>
   <v type="int" >        2       72       72       73       83 </v>
   <v type="int" >        2       72       73       83       83 </v>
   <v type="int" >        2       73       83       83       84 </v>
   <v type="int" >        2       71       72       72       82 </v>
   <v type="int" >        2       72       72       82       83 </v>
   <v type="int" >        2       72       82       83       83 </v>
   <v type="int" >        2       71       71       72       82 </v>
   <v type="int" >        2       71       72       82       82 </v>
   <v type="int" >        2       72       82       82       83 </v>
   <v type="int" >        2       70       71       71       81 </v>
   <v type="int" >        2       71       71       81       82 </v>
   <v type="int" >        2       71       81       82       82 </v>
   <v type="int" >        2       70       70       71       81 </v>
   <v type="int" >        2       70       71       81       81 </v>
   <v type="int" >        2       71       81       81       82 </v>
   <v type="int" >        2       69       70       70       80 </v>
   <v type="int" >        2       70       70       80       81 </v>
   <v type="int" >        2       70       80       81       81 </v>
   <v type="int" >        2       69       69       70       80 </v>
   <v type="int" >        2       69       70       80       80 </v>
   <v type="int" >        2       70       80       80       81 </v>
   <v type="int" >        2       68       69       69       79 </v>
   <v type="int" >        2       69       69       79       80 </v>
   <v type="int" >        2       69       79       80       80 </v>
   <v type="int" >        2       68       68       69       79 </v>
   <v type="int" >        2       68       69       79       79 </v>
   <v type="int" >        2       69       79       79       80 </v>
   <v type="int" >        2       67       68       68       78 </v>
   <v type="int" >        2       68       68       78       79 </v>
   <v type="int" >        2       68       78       79       79 </v>
   <v type="int" >        2       67       67       68       78 </v>
   <v type="int" >        2       67       68       78       78 </v>
   <v type="int" >        2       68       78       78       79 </v>
   <v type="int" >        2       78       78       79       90 </v>
   <v type="int" >        2       78       78       89       90 </v>
   <v type="int" >        2       78       89       89       90 </v>
   <v type="int" >        2       78       79       79       90 </v>
   <v type="int" >        2       78       79       90       90 </v>
   <v type="int" >        2       78       89       90       90 </v>
   <v type="int" >        2       79       79       80       91 </v>
   <v type="int" >        2       79       79       90       91 </v>
   <v type="int" >        2       79       90       90       91 </v>
   <v type="int" >        2       79       80       80       91 </v>
   <v type="int" >        2       79       80       91       91 </v>
   <v type="int" >        2       79       90       91       91 </v>
   <v type="int" >        2       80       80       81       92 </v>
   <v type="int" >        2       80       80       91       92 </v>
   <v type="int" >        2       80       91       91       92 </v>
   <v type="int" >        2       80       81       81       92 </v>
   <v type="int" >        2       80       81       92       92 </v>
   <v type="int" >        2       80       91       92       92 </v>
   <v type="int" >        2       81       81       82       93 </v>
   <v type="int" >        2       81       81       92       93 </v>
   <v type="int" >        2       81       92       92       93 </v>
   <v type="int" >        2       81       82       82       93 </v>
   <v type="int" >        2       81       82       93       93 </v>
   <v type="int" >        2       81       92       93       93 </v>
   <v type="int" >        2       82       82       83       94 </v>
   <v type="int" >        2       82       82       93       94 </v>
   <v type="int" >        2       82       93       93       94 </v>
   <v type="int" >        2       82       83       83       94 </v>
   <v type="int" >        2       82       83       94       94 </v>
   <v type="int" >        2       82       93       94       94 </v>
   <v type="int" >        2       83       83       84       95 </v>
   <v type="int" >        2       83       83       94       95 </v>
   <v type="int" >        2       83       94       94       95 </v>
   <v type="int" >        2       83       84       84       95 </v>
   <v type="int" >        2       83       84       95       95 </v>
   <v type="int" >        2       83       94       95       95 </v>
   <v type="int" >        2       84       84       85       96 </v>
   <v type="int" >        2       84       84       95       96 </v>
   <v type="int" >        2       84       95       95       96 </v>
   <v type="int" >        2       84       85       85       96 </v>
   <v type="int" >        2       84       85       96       96 </v>
   <v type="int" >        2       84       95       96       96 </v>
   <v type="int" >        2       85       85       86       97 </v>
   <v type="int" >        2       85       85       96       97 </v>
   <v type="int" >        2       85       96       96       97 </v>
   <v type="int" >        2       85       86       86       97 </v>
   <v type="int" >        2       85       86       97       97 </v>
   <v type="int" >        2       85       96       97       97 </v>
   <v type="int" >        2       86       86       87       98 </v>
   <v type="int" >        2       86       86       97       98 </v>
   <v type="int" >        2       86       97       97       98 </v>
   <v type="int" >        2       86       87       87       98 </v>
   <v type="int" >        2       86       87       98       98 </v>
   <v type="int" >        2       86       97       98       98 </v>
   <v type="int" >        2       87       87       88       99 </v>
   <v type="int" >        2       87       87       98       99 </v>
   <v type="int" >        2       87       98       98       99 </v>
   <v type="int" >        2       87       88       88       99 </v>
   <v type="int" >        2       87       88       99       99 </v>
   <v type="int" >        2       87       98       99       99 </v>
   <v type="int" >        2       87       88       88       98 </v>
   <v type="int" >        2       88       88       98       99 </v>
   <v type="int" >        2       88       98       99       99 </v>
   <v type="int" >        2       87       87       88       98 </v>
   <v type="int" >        2       87       88       98       98 </v>
   <v type="int" >        2       88       98       98       99 </v>
   <v type="int" >        2       86       87       87       97 </v>
   <v type="int" >        2       87       87       97       98 </v>
   <v type="int" >        2       87       97       98       98 </v>
   <v type="int" >        2       86       86       87       97 </v>
   <v type="int" >        2       86       87       97       97 </v>
   <v type="int" >        2       87       97       97       98 </v>
   <v type="int" >        2       85       86       86       96 </v>
   <v type="int" >        2       86       86       96       97 </v>
   <v type="int" >        2       86       96       97       97 </v>
   <v type="int" >        2       85       85       86       96 </v>
   <v type="int" >        2       85       86       96       96 </v>
   <v type="int" >        2       86       96       96       97 </v>
   <v type="int" >        2       84       85       85       95 </v>
   <v type="int" >        2       85       85       95       96 </v>
   <v type="int" >        2       85       95       96       96 </v>
   <v type="int" >        2       84       84       85       95 </v>
   <v type="int" >        2       84       85       95       95 </v>
   <v type="int" >        2       85       95       95       96 </v>
   <v type="int" >        2       83       84       84       94 </v>
   <v type="int" >        2       84       84       94       95 </v>
   <v type="int" >        2       84       94       95       95 </v>
   <v type="int" >        2       83       83       84       94 </v>
   <v type="int" >        2       83       84       94       94 </v>
   <v type="int" >        2       84       94       94       95 </v>
   <v type="int" >        2       82       83       83       93 </v>
   <v type="int" >        2       83       83       93       94 </v>
   <v type="int" >        2       83       93       94       94 </v>
   <v type="int" >        2       82       82       83       93 </v>
   <v type="int" >        2       82       83       93       93 </v>
   <v type="int" >        2       83       93       93       94 </v>
   <v type="int" >        2       81       82       82       92 </v>
   <v type="int" >        2       82       82       92       93 </v>
   <v type="int" >        2       82       92       93       93 </v>
   <v type="int" >        2       81       81       82       92 </v>
   <v type="int" >        2       81       82       92       92 </v>
   <v type="int" >        2       82       92       92       93 </v>
   <v type="int" >        2       80       81       81       91 </v>
   <v type="int" >        2       81       81       91       92 </v>
   <v type="int" >        2       81       91       92       92 </v>
   <v type="int" >        2       80       80       81       91 </v>
   <v type="int" >        2       80       81       91       91 </v>
   <v type="int" >        2       81       91       91       92 </v>
   <v type="int" >        2       79       80       80       90 </v>
   <v type="int" >        2       80       80       90       91 </v>
   <v type="int" >        2       80       90       91       91 </v>
   <v type="int" >        2       79       79       80       90 </v>
   <v type="int" >        2       79       80       90       90 </v>
   <v type="int" >        2       80       90       90       91 </v>
   <v type="int" >        2       78       79       79       89 </v>
   <v type="int" >        2       79       79       89       90 </v>
   <v type="int" >        2       79       89       90       90 </v>
   <v type="int" >        2       78       78       79       89 </v>
   <v type="int" >        2       78       79       89       89 </v>
   <v type="int" >        2       79       89       89       90 </v>
   <v type="int" >        2       89       89       90      101 </v>
   <v type="int" >        2       89       89      100      101 </v>
   <v type="int" >        2       89      100      100      101 </v>
   <v type="int" >        2       89       90       90      101 </v>
   <v type="int" >        2       89       90      101      101 </v>
   <v type="int" >        2       89      100      101      101 </v>
   <v type="int" >        2       90       90       91      102 </v>
   <v type="int" >        2       90       90      101      102 </v>
   <v type="int" >        2       90      101      101      102 </v>
   <v type="int" >        2       90       91       91      102 </v>
   <v type="int" >        2       90       91      102      102 </v>
   <v type="int" >        2       90      101      102      102 </v>
   <v type="int" >        2       91       91       92      103 </v>
   <v type="int" >        2       91       91      102      103 </v>
[...]
       <r>     1.2207     2.1888    28.1255 </r>
       <r>     1.2288     2.2530    28.1436 </r>
       <r>     1.2370     2.3243    28.1622 </r>
       <r>     1.2451     2.3857    28.1814 </r>
       <r>     1.2532     2.4149    28.2009 </r>
       <r>     1.2614     2.7391    28.2217 </r>
       <r>     1.2695     2.8728    28.2444 </r>
       <r>     1.2776     3.0242    28.2684 </r>
       <r>     1.2857     3.1755    28.2936 </r>
       <r>     1.2939     2.9390    28.3188 </r>
       <r>     1.3020     2.7680    28.3418 </r>
       <r>     1.3101     2.6491    28.3638 </r>
       <r>     1.3183     2.6159    28.3850 </r>
       <r>     1.3264     2.9881    28.4072 </r>
       <r>     1.3345     3.6544    28.4342 </r>
       <r>     1.3426     3.2972    28.4608 </r>
       <r>     1.3508     3.6615    28.4886 </r>
       <r>     1.3589     4.7341    28.5226 </r>
       <r>     1.3670     5.8705    28.5656 </r>
       <r>     1.3752     6.8089    28.6176 </r>
       <r>     1.3833     7.4474    28.6757 </r>
       <r>     1.3914     9.9364    28.7495 </r>
       <r>     1.3995     9.5514    28.8286 </r>
       <r>     1.4077    11.0438    28.9100 </r>
       <r>     1.4158    13.3998    29.0091 </r>
       <r>     1.4239    17.1139    29.1304 </r>
       <r>     1.4321     8.0220    29.2459 </r>
       <r>     1.4402     7.7302    29.3100 </r>
       <r>     1.4483     7.8838    29.3730 </r>
       <r>     1.4564     7.7138    29.4373 </r>
       <r>     1.4646     8.1081    29.4984 </r>
       <r>     1.4727     5.3314    29.5655 </r>
       <r>     1.4808     5.4821    29.6093 </r>
       <r>     1.4890     5.8354    29.6550 </r>
       <r>     1.4971     6.2840    29.7044 </r>
       <r>     1.5052     7.6576    29.7606 </r>
       <r>     1.5133     8.6669    29.8242 </r>
       <r>     1.5215     7.9881    29.8918 </r>
       <r>     1.5296     4.6112    29.9412 </r>
       <r>     1.5377     4.5290    29.9783 </r>
       <r>     1.5459     4.4004    30.0147 </r>
       <r>     1.5540     4.1714    30.0496 </r>
       <r>     1.5621     4.0099    30.0828 </r>
       <r>     1.5702     3.8671    30.1148 </r>
       <r>     1.5784     3.7666    30.1458 </r>
       <r>     1.5865     3.7143    30.1761 </r>
       <r>     1.5946     3.6794    30.2062 </r>
       <r>     1.6027     3.6035    30.2359 </r>
       <r>     1.6109     3.5798    30.2650 </r>
       <r>     1.6190     3.5555    30.2940 </r>
       <r>     1.6271     3.5335    30.3229 </r>
       <r>     1.6353     3.5167    30.3515 </r>
       <r>     1.6434     3.4999    30.3800 </r>
       <r>     1.6515     3.4831    30.4084 </r>
       <r>     1.6596     3.4672    30.4366 </r>
       <r>     1.6678     3.4791    30.4649 </r>
       <r>     1.6759     3.5137    30.4933 </r>
       <r>     1.6840     3.5537    30.5220 </r>
       <r>     1.6922     3.6009    30.5511 </r>
       <r>     1.7003     3.6488    30.5805 </r>
       <r>     1.7084     3.7007    30.6104 </r>
       <r>     1.7165     3.6898    30.6404 </r>
       <r>     1.7247     3.7066    30.6704 </r>
       <r>     1.7328     3.7997    30.7010 </r>
       <r>     1.7409     3.9284    30.7324 </r>
       <r>     1.7491     4.0585    30.7648 </r>
       <r>     1.7572     4.1874    30.7983 </r>
       <r>     1.7653     4.3292    30.8329 </r>
       <r>     1.7734     4.4789    30.8687 </r>
       <r>     1.7816     4.8553    30.9062 </r>
       <r>     1.7897     5.1439    30.9470 </r>
       <r>     1.7978     5.4023    30.9898 </r>
       <r>     1.8060     5.7092    31.0350 </r>
       <r>     1.8141     5.9935    31.0841 </r>
       <r>     1.8222     5.8834    31.1346 </r>
       <r>     1.8303     4.8986    31.1782 </r>
       <r>     1.8385     4.7579    31.2176 </r>
       <r>     1.8466     4.6510    31.2554 </r>
       <r>     1.8547     5.0155    31.2950 </r>
       <r>     1.8629     3.8624    31.3280 </r>
       <r>     1.8710     3.7113    31.3588 </r>
       <r>     1.8791     3.5601    31.3884 </r>
       <r>     1.8872     3.4619    31.4168 </r>
       <r>     1.8954     3.4115    31.4447 </r>
       <r>     1.9035     3.8047    31.4739 </r>
       <r>     1.9116     3.8551    31.5059 </r>
       <r>     1.9198     3.7528    31.5368 </r>
       <r>     1.9279     3.6489    31.5669 </r>
       <r>     1.9360     3.5451    31.5961 </r>
       <r>     1.9441     4.1962    31.6256 </r>
       <r>     1.9523     5.7112    31.6701 </r>
       <r>     1.9604     4.1896    31.7107 </r>
       <r>     1.9685     0.6170    31.7261 </r>
       <r>     1.9767     0.6010    31.7310 </r>
       <r>     1.9848     0.5864    31.7358 </r>
       <r>     1.9929     0.5718    31.7405 </r>
       <r>     2.0010     0.5573    31.7451 </r>
       <r>     2.0092     0.5436    31.7496 </r>
       <r>     2.0173     0.5335    31.7540 </r>
       <r>     2.0254     0.5233    31.7583 </r>
       <r>     2.0336     0.5177    31.7625 </r>
       <r>     2.0417     0.5134    31.7667 </r>
       <r>     2.0498     0.5090    31.7709 </r>
       <r>     2.0579     0.5047    31.7750 </r>
       <r>     2.0661     0.5003    31.7791 </r>
       <r>     2.0742     0.4960    31.7831 </r>
       <r>     2.0823     0.4916    31.7871 </r>
       <r>     2.0905     0.4902    31.7911 </r>
       <r>     2.0986     0.4924    31.7951 </r>
       <r>     2.1067     0.4946    31.7991 </r>
       <r>     2.1148     0.4968    31.8031 </r>
       <r>     2.1230     0.4990    31.8072 </r>
       <r>     2.1311     0.5012    31.8112 </r>
       <r>     2.1392     0.5034    31.8153 </r>
       <r>     2.1474     0.5895    31.8197 </r>
       <r>     2.1555     0.6961    31.8249 </r>
       <r>     2.1636     0.8027    31.8310 </r>
       <r>     2.1717     0.8660    31.8378 </r>
       <r>     2.1799     0.9305    31.8451 </r>
       <r>     2.1880     0.9999    31.8530 </r>
       <r>     2.1961     1.1212    31.8615 </r>
       <r>     2.2042     1.2964    31.8713 </r>
       <r>     2.2124     1.4324    31.8825 </r>
       <r>     2.2205     1.4568    31.8942 </r>
       <r>     2.2286     1.4357    31.9060 </r>
       <r>     2.2368     1.3952    31.9175 </r>
       <r>     2.2449     1.3546    31.9287 </r>
       <r>     2.2530     1.3141    31.9395 </r>
       <r>     2.2611     1.2483    31.9500 </r>
       <r>     2.2693     1.1687    31.9598 </r>
       <r>     2.2774     1.0891    31.9690 </r>
       <r>     2.2855     0.8919    31.9773 </r>
       <r>     2.2937     0.5584    31.9830 </r>
       <r>     2.3018     0.4924    31.9874 </r>
       <r>     2.3099     0.3841    31.9909 </r>
       <r>     2.3180     0.2759    31.9936 </r>
       <r>     2.3262     0.2199    31.9956 </r>
       <r>     2.3343     0.1754    31.9972 </r>
       <r>     2.3424     0.1310    31.9984 </r>
       <r>     2.3506     0.0866    31.9993 </r>
       <r>     2.3587     0.0421    31.9998 </r>
       <r>     2.3668     0.0000    32.0000 </r>
       <r>     2.3749     0.0000    32.0000 </r>
       <r>     2.3831     0.0000    32.0000 </r>
       <r>     2.3912     0.0000    32.0000 </r>
       <r>     2.3993     0.0000    32.0000 </r>
       <r>     2.4075     0.0000    32.0000 </r>
       <r>     2.4156     0.0000    32.0000 </r>
       <r>     2.4237     0.0000    32.0000 </r>
       <r>     2.4318     0.0000    32.0000 </r>
       <r>     2.4400     0.0000    32.0000 </r>
       <r>     2.4481     0.0000    32.0000 </r>
       <r>     2.4562     0.0000    32.0000 </r>
       <r>     2.4644     0.0000    32.0000 </r>
       <r>     2.4725     0.0000    32.0000 </r>
       <r>     2.4806     0.0000    32.0000 </r>
       <r>     2.4887     0.0000    32.0000 </r>
       <r>     2.4969     0.0000    32.0000 </r>
       <r>     2.5050     0.0000    32.0000 </r>
       <r>     2.5131     0.0000    32.0000 </r>
       <r>     2.5213     0.0000    32.0000 </r>
       <r>     2.5294     0.0000    32.0000 </r>
       <r>     2.5375     0.0000    32.0000 </r>
       <r>     2.5456     0.0000    32.0000 </r>
       <r>     2.5538     0.0000    32.0000 </r>
       <r>     2.5619     0.0000    32.0000 </r>
       <r>     2.5700     0.0000    32.0000 </r>
       <r>     2.5782     0.0000    32.0000 </r>
       <r>     2.5863     0.0000    32.0000 </r>
       <r>     2.5944     0.0000    32.0000 </r>
       <r>     2.6025     0.0000    32.0000 </r>
       <r>     2.6107     0.0000    32.0000 </r>
       <r>     2.6188     0.0000    32.0000 </r>
       <r>     2.6269     0.0000    32.0000 </r>
       <r>     2.6351     0.0000    32.0000 </r>
       <r>     2.6432     0.0000    32.0000 </r>
       <r>     2.6513     0.0000    32.0000 </r>
       <r>     2.6594     0.0000    32.0000 </r>
       <r>     2.6676     0.0000    32.0000 </r>
       <r>     2.6757     0.0000    32.0000 </r>
       <r>     2.6838     0.0000    32.0000 </r>
       <r>     2.6920     0.0000    32.0000 </r>
       <r>     2.7001     0.0000    32.0000 </r>
       <r>     2.7082     0.0000    32.0000 </r>
       <r>     2.7163     0.0000    32.0000 </r>
       <r>     2.7245     0.0000    32.0000 </r>
       <r>     2.7326     0.0000    32.0000 </r>
       <r>     2.7407     0.0000    32.0000 </r>
       <r>     2.7489     0.0000    32.0000 </r>
       <r>     2.7570     0.0000    32.0000 </r>
       <r>     2.7651     0.0000    32.0000 </r>
       <r>     2.7732     0.0000    32.0000 </r>
       <r>     2.7814     0.0000    32.0000 </r>
       <r>     2.7895     0.0000    32.0000 </r>
       <r>     2.7976     0.0000    32.0000 </r>
       <r>     2.8057     0.0000    32.0000 </r>
       <r>     2.8139     0.0000    32.0000 </r>
       <r>     2.8220     0.0000    32.0000 </r>
       <r>     2.8301     0.0000    32.0000 </r>
       <r>     2.8383     0.0000    32.0000 </r>
       <r>     2.8464     0.0000    32.0000 </r>
       <r>     2.8545     0.0000    32.0000 </r>
       <r>     2.8626     0.0000    32.0000 </r>
       <r>     2.8708     0.0000    32.0000 </r>
       <r>     2.8789     0.0000    32.0000 </r>
       <r>     2.8870     0.0000    32.0000 </r>
       <r>     2.8952     0.0000    32.0000 </r>
       <r>     2.9033     0.0000    32.0000 </r>
       <r>     2.9114     0.0000    32.0000 </r>
       <r>     2.9195     0.0000    32.0000 </r>
       <r>     2.9277     0.0000    32.0000 </r>
       <r>     2.9358     0.0000    32.0000 </r>
       <r>     2.9439     0.0000    32.0000 </r>
       <r>     2.9521     0.0000    32.0000 </r>
       <r>     2.9602     0.0000    32.0000 </r>
       <r>     2.9683     0.0000    32.0000 </r>
       <r>     2.9764     0.0000    32.0000 </r>
       <r>     2.9846     0.0000    32.0000 </r>
       <r>     2.9927     0.0000    32.0000 </r>
       <r>     3.0008     0.0000    32.0000 </r>
       <r>     3.0090     0.0000    32.0000 </r>
       <r>     3.0171     0.0000    32.0000 </r>
       <r>     3.0252     0.0000    32.0000 </r>
       <r>     3.0333     0.0000    32.0000 </r>
       <r>     3.0415     0.0000    32.0000 </r>
       <r>     3.0496     0.0000    32.0000 </r>
       <r>     3.0577     0.0000    32.0000 </r>
       <r>     3.0659     0.0000    32.0000 </r>
       <r>     3.0740     0.0000    32.0000 </r>
       <r>     3.0821     0.0000    32.0000 </r>
       <r>     3.0902     0.0000    32.0000 </r>
       <r>     3.0984     0.0000    32.0000 </r>
       <r>     3.1065     0.0000    32.0000 </r>
       <r>     3.1146     0.0000    32.0000 </r>
       <r>     3.1228     0.0000    32.0000 </r>
       <r>     3.1309     0.0000    32.0000 </r>
       <r>     3.1390     0.0000    32.0000 </r>
       <r>     3.1471     0.0000    32.0000 </r>
       <r>     3.1553     0.0000    32.0000 </r>
       <r>     3.1634     0.0000    32.0000 </r>
       <r>     3.1715     0.0000    32.0000 </r>
       <r>     3.1797     0.0000    32.0000 </r>
       <r>     3.1878     0.0000    32.0000 </r>
       <r>     3.1959     0.0000    32.0000 </r>
       <r>     3.2040     0.0000    32.0000 </r>
       <r>     3.2122     0.0000    32.0000 </r>
       <r>     3.2203     0.0000    32.0000 </r>
       <r>     3.2284     0.0000    32.0000 </r>
       <r>     3.2366     0.0000    32.0000 </r>
       <r>     3.2447     0.0000    32.0000 </r>
       <r>     3.2528     0.0000    32.0000 </r>
       <r>     3.2609     0.0000    32.0000 </r>
       <r>     3.2691     0.0000    32.0000 </r>
       <r>     3.2772     0.0000    32.0000 </r>
       <r>     3.2853     0.0000    32.0000 </r>
       <r>     3.2935     0.0000    32.0000 </r>
       <r>     3.3016     0.0000    32.0000 </r>
       <r>     3.3097     0.0000    32.0000 </r>
       <r>     3.3178     0.0000    32.0000 </r>
       <r>     3.3260     0.0000    32.0000 </r>
       <r>     3.3341     0.0000    32.0000 </r>
       <r>     3.3422     0.0000    32.0000 </r>
       <r>     3.3504     0.0000    32.0000 </r>
       <r>     3.3585     0.0000    32.0000 </r>
       <r>     3.3666     0.0000    32.0000 </r>
       <r>     3.3747     0.0000    32.0000 </r>
       <r>     3.3829     0.0000    32.0000 </r>
       <r>     3.3910     0.0000    32.0000 </r>
       <r>     3.3991     0.0000    32.0000 </r>
       <r>     3.4073     0.0000    32.0000 </r>
       <r>     3.4154     0.0000    32.0000 </r>
       <r>     3.4235     0.0000    32.0000 </r>
       <r>     3.4316     0.0000    32.0000 </r>
       <r>     3.4398     0.0000    32.0000 </r>
       <r>     3.4479     0.0000    32.0000 </r>
       <r>     3.4560     0.0000    32.0000 </r>
       <r>     3.4641     0.0000    32.0000 </r>
       <r>     3.4723     0.0000    32.0000 </r>
       <r>     3.4804     0.0000    32.0000 </r>
       <r>     3.4885     0.0000    32.0000 </r>
       <r>     3.4967     0.0000    32.0000 </r>
       <r>     3.5048     0.0000    32.0000 </r>
       <r>     3.5129     0.0000    32.0000 </r>
       <r>     3.5210     0.0000    32.0000 </r>
       <r>     3.5292     0.0000    32.0000 </r>
       <r>     3.5373     0.0000    32.0000 </r>
       <r>     3.5454     0.0000    32.0000 </r>
       <r>     3.5536     0.0000    32.0000 </r>
       <r>     3.5617     0.0000    32.0000 </r>
       <r>     3.5698     0.0000    32.0000 </r>
       <r>     3.5779     0.0000    32.0000 </r>
       <r>     3.5861     0.0000    32.0000 </r>
       <r>     3.5942     0.0000    32.0000 </r>
       <r>     3.6023     0.0000    32.0000 </r>
       <r>     3.6105     0.0000    32.0000 </r>
       <r>     3.6186     0.0000    32.0000 </r>
       <r>     3.6267     0.0000    32.0000 </r>
       <r>     3.6348     0.0000    32.0000 </r>
       <r>     3.6430     0.0000    32.0000 </r>
       <r>     3.6511     0.0000    32.0000 </r>
       <r>     3.6592     0.0000    32.0000 </r>
       <r>     3.6674     0.0000    32.0000 </r>
       <r>     3.6755     0.0000    32.0000 </r>
       <r>     3.6836     0.0000    32.0000 </r>
       <r>     3.6917     0.0000    32.0000 </r>
       <r>     3.6999     0.0000    32.0000 </r>
       <r>     3.7080     0.0000    32.0000 </r>
       <r>     3.7161     0.0000    32.0000 </r>
       <r>     3.7243     0.0000    32.0000 </r>
       <r>     3.7324     0.0000    32.0000 </r>
       <r>     3.7405     0.0000    32.0000 </r>
       <r>     3.7486     0.0000    32.0000 </r>
       <r>     3.7568     0.0000    32.0000 </r>
       <r>     3.7649     0.0000    32.0000 </r>
       <r>     3.7730     0.0000    32.0000 </r>
       <r>     3.7812     0.0000    32.0000 </r>
       <r>     3.7893     0.0000    32.0000 </r>
       <r>     3.7974     0.0000    32.0000 </r>
       <r>     3.8055     0.0000    32.0000 </r>
       <r>     3.8137     0.0000    32.0000 </r>
       <r>     3.8218     0.0000    32.0000 </r>
       <r>     3.8299     0.0000    32.0000 </r>
       <r>     3.8381     0.0000    32.0000 </r>
       <r>     3.8462     0.0000    32.0000 </r>
       <r>     3.8543     0.0000    32.0000 </r>
       <r>     3.8624     0.0000    32.0000 </r>
       <r>     3.8706     0.0000    32.0000 </r>
       <r>     3.8787     0.0000    32.0000 </r>
       <r>     3.8868     0.0000    32.0000 </r>
       <r>     3.8950     0.0000    32.0000 </r>
       <r>     3.9031     0.0000    32.0000 </r>
       <r>     3.9112     0.0000    32.0000 </r>
       <r>     3.9193     0.0000    32.0000 </r>
       <r>     3.9275     0.0000    32.0000 </r>
       <r>     3.9356     0.0000    32.0000 </r>
       <r>     3.9437     0.0000    32.0000 </r>
       <r>     3.9519     0.0000    32.0000 </r>
       <r>     3.9600     0.0000    32.0000 </r>
       <r>     3.9681     0.0000    32.0000 </r>
       <r>     3.9762     0.0000    32.0000 </r>
       <r>     3.9844     0.0000    32.0000 </r>
       <r>     3.9925     0.0000    32.0000 </r>
       <r>     4.0006     0.0000    32.0000 </r>
       <r>     4.0088     0.0000    32.0000 </r>
       <r>     4.0169     0.0000    32.0000 </r>
       <r>     4.0250     0.0000    32.0000 </r>
       <r>     4.0331     0.0000    32.0000 </r>
       <r>     4.0413     0.0000    32.0000 </r>
       <r>     4.0494     0.0000    32.0000 </r>
       <r>     4.0575     0.0000    32.0000 </r>
       <r>     4.0656     0.0000    32.0000 </r>
       <r>     4.0738     0.0000    32.0000 </r>
       <r>     4.0819     0.0000    32.0000 </r>
       <r>     4.0900     0.0000    32.0000 </r>
       <r>     4.0982     0.0000    32.0000 </r>
       <r>     4.1063     0.0000    32.0000 </r>
       <r>     4.1144     0.0000    32.0000 </r>
       <r>     4.1225     0.0000    32.0000 </r>
       <r>     4.1307     0.0000    32.0000 </r>
       <r>     4.1388     0.0000    32.0000 </r>
       <r>     4.1469     0.0000    32.0000 </r>
       <r>     4.1551     0.0000    32.0000 </r>
       <r>     4.1632     0.0000    32.0000 </r>
       <r>     4.1713     0.0000    32.0000 </r>
       <r>     4.1794     0.0000    32.0000 </r>
       <r>     4.1876     0.0000    32.0000 </r>
       <r>     4.1957     0.0000    32.0000 </r>
       <r>     4.2038     0.0000    32.0000 </r>
       <r>     4.2120     0.0000    32.0000 </r>
       <r>     4.2201     0.0000    32.0000 </r>
       <r>     4.2282     0.0000    32.0000 </r>
       <r>     4.2363     0.0000    32.0000 </r>
       <r>     4.2445     0.0000    32.0000 </r>
       <r>     4.2526     0.0000    32.0000 </r>
       <r>     4.2607     0.0000    32.0000 </r>
       <r>     4.2689     0.0000    32.0000 </r>
       <r>     4.2770     0.0000    32.0000 </r>
       <r>     4.2851     0.0000    32.0000 </r>
       <r>     4.2932     0.0000    32.0000 </r>
       <r>     4.3014     0.0000    32.0000 </r>
       <r>     4.3095     0.0000    32.0000 </r>
       <r>     4.3176     0.0000    32.0000 </r>
       <r>     4.3258     0.0000    32.0000 </r>
       <r>     4.3339     0.0000    32.0000 </r>
       <r>     4.3420     0.0000    32.0000 </r>
       <r>     4.3501     0.0000    32.0000 </r>
       <r>     4.3583     0.0000    32.0000 </r>
       <r>     4.3664     0.0000    32.0000 </r>
      </set>
     </set>
    </array>
   </total>
  </dos>
 </calculation>
 <structure name="finalpos" >
  <crystal>
   <varray name="basis" >
    <v>       4.06830961       0.00000000       0.00000000 </v>
    <v>       0.00000000       4.96064732      -0.00007583 </v>
    <v>       0.00000000      -0.00029986      19.88988163 </v>
   </varray>
   <i name="volume">    401.40663541 </i>
   <varray name="rec_basis" >
    <v>       0.24580233       0.00000000       0.00000000 </v>
    <v>       0.00000000       0.20158659       0.00000304 </v>
    <v>       0.00000000       0.00000077       0.05027682 </v>
   </varray>
  </crystal>
  <varray name="positions" >
   <v>       0.75000000       0.60112131       0.22765531 </v>
   <v>       0.25000000       0.10113980       0.06708497 </v>
   <v>       0.25000000       0.01298820       0.20360250 </v>
   <v>       0.75000000       0.51293469       0.09115722 </v>
  </varray>
 </structure>
</modeling>
